define = -DPOSRES
integrator = md
dt = 0.001
nsteps = 125000        ; 125 ps
nstlog = 5000
nstenergy = 5000
cutoff-scheme = Verlet
nstlist = 20
rlist = 1.2
coulombtype = pme
rcoulomb = 1.2
vdwtype = cut-off
vdw-modifier = force-switch
rvdw-switch = 1.0
rvdw = 1.2
constraint_algorithm = lincs
lincs-iter = 1
lincs-order = 4
constraints = h-bonds
tcoupl = v-rescale
tc_grps = MEMBRANE SOLV
tau_t = 1.0 1.0
ref_t = 310.15 310.15
nstcomm = 100
comm_mode = linear
comm_grps = MEMBRANE SOLV
refcoord_scaling = com
pcoupl = no
gen-vel = yes
gen-temp = 310.15
gen-seed = -1
