POPC
53800
    1POPC     N    1   2.808   2.047   6.113 -0.3816  0.0347  0.0339
    1POPC   C12    2   2.859   2.102   5.982  0.3407  0.3777  0.4569
    1POPC  H12A    6   2.925   2.185   6.004  0.6578  1.1009 -2.8839
    1POPC  H12B    7   2.773   2.147   5.935  0.9927 -1.5047 -2.7324
    1POPC   C13    3   2.918   1.965   6.175 -0.1246  0.1492 -0.2682
    1POPC  H13A    8   2.959   1.890   6.108 -0.2300  0.2197 -0.4121
    1POPC  H13B    9   2.994   2.037   6.200 -0.1030  0.1636 -0.3721
    1POPC  H13C   10   2.880   1.907   6.258  2.6903 -2.1044 -0.4691
    1POPC   C14    4   2.772   2.160   6.206  0.2324  0.5563 -0.3571
    1POPC  H14A   11   2.750   2.119   6.303 -0.5049 -0.0940 -0.7994
    1POPC  H14B   12   2.856   2.227   6.218  0.6176  0.3252 -1.7007
    1POPC  H14C   13   2.691   2.225   6.178 -0.1339  0.7052  0.9944
    1POPC   C15    5   2.689   1.959   6.084 -0.3690  0.0107  0.0561
    1POPC  H15A   14   2.650   1.924   6.179 -1.8858  1.0464 -0.1545
    1POPC  H15B   15   2.718   1.886   6.010  0.0702  2.3147 -2.1243
    1POPC  H15C   16   2.614   2.019   6.034  1.4070  0.0927 -2.5717
    1POPC   C11   17   2.944   2.010   5.894 -0.0272 -0.0548  0.5540
    1POPC  H11A   18   3.041   1.993   5.945 -0.1983  0.0536  0.9155
    1POPC  H11B   19   2.966   2.056   5.795 -0.7531 -0.3421  0.2507
    1POPC     P   20   2.894   1.816   5.730  0.0554 -0.0511  0.0533
    1POPC   O13   21   2.830   1.683   5.735 -0.2258  0.0845  0.0603
    1POPC   O14   22   3.039   1.807   5.702  0.1712  0.2320  0.5456
    1POPC   O12   23   2.872   1.888   5.872 -0.4275  0.3149 -0.2070
    1POPC   O11   24   2.835   1.911   5.616  0.0257 -0.2472 -0.0952
    1POPC    C1   25   2.699   1.955   5.611  0.2084  0.3219 -0.0882
    1POPC    HA   26   2.690   2.066   5.604  1.5757  0.5349  1.1842
    1POPC    HB   27   2.650   1.933   5.709 -2.3517  0.7155 -1.2310
    1POPC    C2   28   2.627   1.876   5.502  0.2898 -0.0545  0.1331
    1POPC    HS   29   2.646   1.766   5.507 -2.5462 -0.5830  0.6100
    1POPC   O21   30   2.670   1.918   5.372  0.4358  0.1740  0.2558
    1POPC   C21   31   2.769   1.852   5.312  0.0269  0.0278 -0.2635
    1POPC   O22   32   2.840   1.769   5.367 -0.0536 -0.1831 -0.4751
    1POPC   C22   33   2.790   1.913   5.174  0.1025  0.1085 -0.2152
    1POPC   H2R   34   2.807   2.022   5.181 -1.0291  0.2928 -0.2290
    1POPC   H2S   35   2.691   1.910   5.124  0.7318 -0.0677 -1.4490
    1POPC    C3   36   2.474   1.883   5.520  0.2526  0.5230 -0.4105
    1POPC    HX   37   2.455   1.822   5.610  0.7652 -0.2010 -0.7922
    1POPC    HY   38   2.435   1.818   5.439 -0.0351 -0.3218  0.4000
    1POPC   O31   39   2.416   2.014   5.531 -0.1568  0.2882  0.2255
    1POPC   C31   40   2.303   2.022   5.462  0.2801 -0.0710 -0.5306
    1POPC   O32   41   2.248   1.931   5.401  0.7752 -0.7979  0.0938
    1POPC   C32   42   2.240   2.159   5.480  0.2153 -0.1512 -0.1471
    1POPC   H2X   43   2.306   2.221   5.544 -0.2327  0.2567 -0.0785
    1POPC   H2Y   44   2.146   2.133   5.534  1.7910 -1.7643  1.9302
    1POPC   C23   45   2.888   1.826   5.095 -0.1466 -0.2844 -0.0938
    1POPC   H3R   46   2.874   1.716   5.092 -0.6930 -0.2223  0.0826
    1POPC   H3S   47   2.994   1.837   5.129  0.0221 -0.2636 -0.6243
    1POPC   C24   48   2.902   1.856   4.946 -0.3567 -0.4742 -0.1514
    1POPC   H4R   49   2.796   1.849   4.911  1.1736  1.2347 -5.6124
    1POPC   H4S   50   2.955   1.776   4.891 -2.0342 -2.3089  0.8030
    1POPC   C25   51   2.966   1.992   4.919 -0.8238 -0.2575 -0.1820
    1POPC   H5R   52   3.074   1.991   4.947 -0.9460  1.4614  0.3674
    1POPC   H5S   53   2.923   2.064   4.992 -0.6315 -0.0308 -0.2901
    1POPC   C26   54   2.957   2.046   4.776  0.4561  0.3240 -0.0485
    1POPC   H6R   55   3.001   1.972   4.704  2.8643  1.2282  0.4514
    1POPC   H6S   56   3.012   2.140   4.756 -0.8721  1.1031 -0.0143
    1POPC   C27   57   2.814   2.062   4.724  0.4185  0.1401 -0.0010
    1POPC   H7R   58   2.753   2.110   4.802  1.5648  0.5015  0.6857
    1POPC   H7S   59   2.766   1.963   4.707 -1.1520  0.7702  0.6932
    1POPC   C28   60   2.794   2.134   4.590  0.1236  0.3701  0.1671
    1POPC   H8R   61   2.836   2.076   4.505 -1.2032 -1.0759  0.4670
    1POPC   H8S   62   2.849   2.229   4.609  1.7468 -0.3367 -0.8930
    1POPC   C29   63   2.653   2.177   4.563 -0.0529 -0.2748  0.0659
    1POPC   H91   64   2.577   2.104   4.596 -1.0079 -0.2195 -1.9541
    1POPC  C210   65   2.619   2.291   4.503 -0.6331 -0.2711  0.4007
    1POPC  H101   66   2.514   2.324   4.493  0.4816  2.8433 -1.8250
    1POPC  C211   67   2.713   2.393   4.446 -0.4481 -0.7324 -0.1265
    1POPC  H11R   68   2.804   2.402   4.509 -0.6048  0.3921 -0.0436
    1POPC  H11S   69   2.657   2.490   4.448 -1.2126 -1.1998  1.8791
    1POPC  C212   70   2.758   2.375   4.301  0.3210 -0.0068  0.0200
    1POPC  H12R   71   2.672   2.348   4.236 -0.2208  1.1131  0.2574
    1POPC  H12S   72   2.845   2.306   4.297 -0.4147 -0.9138 -0.6287
    1POPC  C213   73   2.822   2.504   4.249  0.0737 -0.0114 -0.2980
    1POPC  H13R   74   2.867   2.491   4.148  2.3011  0.9067  0.5531
    1POPC  H13S   75   2.915   2.535   4.301  1.9845 -1.2076 -2.8690
    1POPC  C214   76   2.714   2.608   4.214 -0.0588  0.0574  0.2991
    1POPC  H14R   77   2.684   2.658   4.308 -2.1992 -2.4342  0.9918
    1POPC  H14S   78   2.628   2.550   4.174  0.5336 -0.7165  0.1283
    1POPC  C215   79   2.759   2.708   4.107  0.3110 -0.3784  0.0442
    1POPC  H15R   80   2.670   2.761   4.067 -0.8365 -2.2588  0.0436
    1POPC  H15S   81   2.794   2.656   4.015 -0.4108  0.0794 -0.4922
    1POPC  C216   82   2.856   2.821   4.142 -0.1777  0.1106 -0.1737
    1POPC  H16R   83   2.866   2.888   4.054 -0.4165 -0.8299 -0.9236
    1POPC  H16S   84   2.954   2.782   4.176 -0.1477  0.9705  0.7424
    1POPC  C217   85   2.800   2.906   4.257 -0.1858  0.0244 -0.1131
    1POPC  H17R   86   2.700   2.867   4.283 -0.7290  1.6802  0.3211
    1POPC  H17S   87   2.794   3.008   4.213 -0.1251 -0.0337 -0.2570
    1POPC  C218   88   2.899   2.910   4.373  0.1397 -0.6674 -0.3606
    1POPC  H18R   89   3.002   2.921   4.333  0.7261  0.2167  1.3238
    1POPC  H18S   90   2.892   2.807   4.414 -0.7146 -0.7514 -0.7172
    1POPC  H18T   91   2.873   2.995   4.439  2.2177 -1.2423  1.2479
    1POPC   C33   92   2.203   2.230   5.350  0.0618  0.1731  0.0715
    1POPC   H3X   93   2.189   2.158   5.265  3.1497 -1.3020  0.7397
    1POPC   H3Y   94   2.269   2.316   5.324 -0.1565  0.0975 -0.7728
    1POPC   C34   95   2.056   2.271   5.363 -0.1616 -0.5612 -0.0963
    1POPC   H4X   96   2.049   2.317   5.463 -0.6032 -1.0088  0.0785
    1POPC   H4Y   97   1.998   2.176   5.363 -0.6063 -0.3661 -3.7474
    1POPC   C35   98   2.015   2.377   5.261  0.4770 -0.3036 -0.0895
    1POPC   H5X   99   2.087   2.461   5.270 -0.1203  0.3261 -1.0456
    1POPC   H5Y  100   1.913   2.408   5.292  0.4986 -0.9322  0.6171
    1POPC   C36  101   2.020   2.323   5.118 -0.4526 -0.0642 -0.2176
    1POPC   H6X  102   1.966   2.226   5.109 -1.1526  0.1724  1.3309
    1POPC   H6Y  103   2.127   2.296   5.105 -0.6866 -0.2809 -1.7935
    1POPC   C37  104   1.989   2.431   5.014  0.4510  0.2912 -0.1236
    1POPC   H7X  105   2.042   2.527   5.028  0.7509 -0.1318  1.8232
    1POPC   H7Y  106   1.883   2.464   5.017 -0.0987 -1.2578 -1.6163
    1POPC   C38  107   2.034   2.374   4.879 -0.4598 -0.0705 -0.2791
    1POPC   H8X  108   1.972   2.283   4.862 -3.6669  1.2618  3.3459
    1POPC   H8Y  109   2.140   2.342   4.878 -0.5817 -0.5118  0.5616
    1POPC   C39  110   2.025   2.471   4.761  0.0438  0.3583  0.0286
    1POPC   H9X  111   2.062   2.573   4.781  0.6928  0.2310 -0.4899
    1POPC   H9Y  112   1.917   2.481   4.735 -0.1264 -2.8207 -0.7825
    1POPC  C310  113   2.107   2.413   4.645  0.0574 -0.4399  0.4345
    1POPC  H10X  114   2.206   2.391   4.690  0.1213 -0.6511  0.1878
    1POPC  H10Y  115   2.130   2.497   4.577  2.6561 -3.0435 -2.0268
    1POPC  C311  116   2.048   2.289   4.576 -0.0555 -0.0889 -0.0978
    1POPC  H11X  117   1.954   2.307   4.520  0.4591  1.9035 -0.3935
    1POPC  H11Y  118   2.023   2.212   4.652  0.0169  1.0361  1.0869
    1POPC  C312  119   2.149   2.237   4.474  0.0789  0.0156 -0.0173
    1POPC  H12X  120   2.091   2.165   4.413  2.2257 -0.5866 -1.4184
    1POPC  H12Y  121   2.237   2.199   4.531 -0.3072 -0.2492  0.3963
    1POPC  C313  122   2.226   2.337   4.387  0.8067 -0.1108  0.4780
    1POPC  H13X  123   2.285   2.414   4.443  0.7937  0.7042 -0.6191
    1POPC  H13Y  124   2.154   2.394   4.324  1.0664  1.1845  1.3301
    1POPC  C314  125   2.311   2.270   4.279  0.0180  0.5014 -0.5281
    1POPC  H14X  126   2.253   2.187   4.234  0.5860 -0.8175  1.1265
    1POPC  H14Y  127   2.397   2.231   4.337 -1.7373 -1.9084  0.5493
    1POPC  C315  128   2.347   2.366   4.165  0.8473  0.4301 -0.3290
    1POPC  H15X  129   2.438   2.333   4.110  0.0191 -0.2760 -1.3019
    1POPC  H15Y  130   2.373   2.460   4.217  0.1803  0.5543 -0.2197
    1POPC  C316  131   2.236   2.384   4.062  0.6660  0.2374 -0.1684
    1POPC  H16X  132   2.209   2.285   4.018  0.7648  0.7934 -1.4923
    1POPC  H16Y  133   2.273   2.443   3.976  1.3504 -1.5647 -1.1422
    1POPC  H16Z  134   2.147   2.430   4.111  0.0496 -3.4560  2.4175
    2POPC     N  135   2.140   7.820   5.913  0.0348 -0.1141 -0.5180
    2POPC   C12  136   2.103   7.847   5.769 -0.1286  0.0193 -0.4512
    2POPC  H12A  140   2.014   7.789   5.747 -1.0619  1.7766 -1.3881
    2POPC  H12B  141   2.182   7.825   5.699 -0.3400 -1.9186 -0.1202
    2POPC   C13  137   2.012   7.836   5.992  0.3608  0.3660 -0.0879
    2POPC  H13A  142   1.986   7.940   5.980 -2.4867 -0.3428 -0.3057
    2POPC  H13B  143   1.927   7.777   5.963  0.9532 -0.5995  0.1048
    2POPC  H13C  144   2.026   7.811   6.097  0.9202 -1.0740 -0.4940
    2POPC   C14  138   2.189   7.677   5.914 -0.4300 -0.2726  0.8060
    2POPC  H14A  145   2.130   7.607   5.857  2.5849 -2.6963  0.5395
    2POPC  H14B  146   2.290   7.686   5.878 -0.8914 -0.1321 -0.4851
    2POPC  H14C  147   2.201   7.635   6.013  0.7096  1.1781  1.3009
    2POPC   C15  139   2.249   7.911   5.963 -0.0757 -0.3436  0.1465
    2POPC  H15A  148   2.219   0.052   5.955  0.9884 -0.0414 -0.6500
    2POPC  H15B  149   2.336   7.895   5.900  0.7438  1.9127  0.6581
    2POPC  H15C  150   2.269   7.890   6.067 -0.7738  0.9980  0.5564
    2POPC   C11  151   2.059   0.028   5.737  0.0512  0.2303  0.0529
    2POPC  H11A  152   2.040   0.017   5.629 -0.5453 -1.1270  0.2873
    2POPC  H11B  153   2.148   0.086   5.768  0.2794  0.1634 -0.4902
    2POPC     P  154   1.917   0.231   5.762 -0.3822 -0.1703  0.1919
    2POPC   O13  155   2.036   0.309   5.800 -0.1903 -0.3069 -0.1244
    2POPC   O14  156   1.789   0.278   5.821 -0.2170 -0.2622  0.6256
    2POPC   O12  157   1.945   0.080   5.808 -0.0230 -0.1050  0.1828
    2POPC   O11  158   1.916   0.221   5.602  0.2327  0.1059  0.1698
    2POPC    C1  159   1.972   0.325   5.521  0.2255  0.1857  0.2678
    2POPC    HA  160   1.968   0.285   5.418 -0.6110  0.5876  0.1384
    2POPC    HB  161   2.081   0.334   5.540  0.4190 -2.6964  0.7823
    2POPC    C2  162   1.904   0.463   5.526 -0.4425 -0.1131 -0.4926
    2POPC    HS  163   1.913   0.497   5.631 -1.7361  0.4506 -0.5526
    2POPC   O21  164   1.769   0.434   5.491 -0.4674  0.0417 -0.5260
    2POPC   C21  165   1.683   0.530   5.525 -0.0832  0.1807  0.0614
    2POPC   O22  166   1.714   0.627   5.592  0.0451  0.0337  0.2123
    2POPC   C22  167   1.556   0.503   5.446  0.1693  0.0529 -0.3035
    2POPC   H2R  168   1.531   0.395   5.454 -1.6741  0.5764  1.3087
    2POPC   H2S  169   1.580   0.539   5.344  0.9727 -0.6611 -0.3681
    2POPC    C3  170   1.966   0.565   5.429 -0.6618  0.2299 -0.2711
    2POPC    HX  171   2.072   0.562   5.463 -1.0435 -0.8761  0.8676
    2POPC    HY  172   1.928   0.668   5.447 -1.6422 -0.5048  1.9554
    2POPC   O31  173   1.960   0.525   5.292  0.1989 -0.1229 -0.2112
    2POPC   C31  174   1.865   0.590   5.225  0.5564  0.2976 -0.3167
    2POPC   O32  175   1.775   0.660   5.270  0.5748  0.4352 -0.4960
    2POPC   C32  176   1.862   0.552   5.078  0.7648 -0.0486 -0.2290
    2POPC   H2X  177   1.803   0.458   5.072  1.7582 -0.7970  1.3415
    2POPC   H2Y  178   1.960   0.521   5.034  1.5023  1.7412  0.0983
    2POPC   C23  179   1.447   0.598   5.497 -0.2826 -0.5299 -0.1752
    2POPC   H3R  180   1.489   0.696   5.528 -0.7620 -1.1771  2.7057
    2POPC   H3S  181   1.390   0.555   5.583  0.4460 -0.0466  0.5623
    2POPC   C24  182   1.345   0.630   5.388  0.2323 -0.0903 -0.5319
    2POPC   H4R  183   1.398   0.695   5.316  0.8585 -0.8065 -0.7220
    2POPC   H4S  184   1.256   0.678   5.434  1.1425  0.2040  0.9643
    2POPC   C25  185   1.295   0.505   5.316 -0.3639 -0.1482 -0.0247
    2POPC   H5R  186   1.213   0.458   5.374 -0.9200 -0.3232 -0.9450
    2POPC   H5S  187   1.376   0.430   5.304 -0.3966 -0.0933 -0.5935
    2POPC   C26  188   1.252   0.534   5.172 -0.1934 -0.2192 -0.0897
    2POPC   H6R  189   1.313   0.605   5.112 -1.9847  1.1240 -0.3407
    2POPC   H6S  190   1.148   0.573   5.166  0.2300  0.7860 -0.9362
    2POPC   C27  191   1.259   0.410   5.082 -0.3902 -0.4135  0.1593
    2POPC   H7R  192   1.212   0.323   5.132 -1.2775 -0.5958 -0.9846
    2POPC   H7S  193   1.367   0.385   5.078 -0.0875  0.3880  2.4072
    2POPC   C28  194   1.205   0.427   4.940  0.3131  0.6956  0.0154
    2POPC   H8R  195   1.098   0.457   4.951 -0.5698 -2.3527  0.0836
    2POPC   H8S  196   1.204   0.324   4.898 -0.8704  0.9154 -0.5238
    2POPC   C29  197   1.303   0.511   4.864  0.2241 -0.2074 -1.1119
    2POPC   H91  198   1.398   0.545   4.907  0.3548  0.0504 -1.6012
    2POPC  C210  199   1.265   0.568   4.748  0.2031  0.3837 -0.8181
    2POPC  H101  200   1.344   0.621   4.692  0.4400 -0.5923 -1.4304
    2POPC  C211  201   1.151   0.540   4.655  0.6551 -0.2628 -1.1844
    2POPC  H11R  202   1.112   0.633   4.609  0.0311  0.1943  0.2445
    2POPC  H11S  203   1.073   0.494   4.719  1.3487  2.5454  1.7982
    2POPC  C212  204   1.167   0.459   4.526  0.2665 -1.3825 -0.5359
    2POPC  H12R  205   1.063   0.428   4.502  0.8370 -3.2355 -0.6735
    2POPC  H12S  206   1.228   0.372   4.558  1.4817 -0.1851  0.4782
    2POPC  C213  207   1.231   0.548   4.418  0.2586 -0.5277  0.1577
    2POPC  H13R  208   1.293   0.485   4.351  1.9947  0.6321  0.6434
    2POPC  H13S  209   1.297   0.627   4.458 -0.5955 -0.6881  1.9564
    2POPC  C214  210   1.121   0.602   4.326  0.3971  0.3352  0.4939
    2POPC  H14R  211   1.052   0.671   4.379 -0.8168  0.5291 -1.3021
    2POPC  H14S  212   1.056   0.520   4.290  0.8787 -0.2114  0.8523
    2POPC  C215  213   1.177   0.684   4.210 -0.2124 -0.1157 -0.1243
    2POPC  H15R  214   1.228   0.620   4.134 -3.6608 -0.6820 -2.0755
    2POPC  H15S  215   1.252   0.752   4.256 -0.2299 -0.5744  0.5797
    2POPC  C216  216   1.067   0.764   4.139 -0.3770  0.0816  0.3478
    2POPC  H16R  217   0.981   0.783   4.206  0.7824 -0.1375  1.9167
    2POPC  H16S  218   1.031   0.705   4.051 -2.0105 -1.2196  1.8615
    2POPC  C217  219   1.122   0.897   4.087  0.2193 -0.0812  0.5520
    2POPC  H17R  220   1.220   0.878   4.039  0.0391  1.8675 -0.6120
    2POPC  H17S  221   1.142   0.965   4.173  0.3964  1.4317 -0.6712
    2POPC  C218  222   1.033   0.978   3.993  0.5835 -0.0146  0.2677
    2POPC  H18R  223   1.089   1.070   3.964  1.9316 -0.2550  2.0328
    2POPC  H18S  224   0.944   1.006   4.053 -0.3174 -0.0480 -1.0305
    2POPC  H18T  225   1.016   0.919   3.900  1.1002 -1.2716  0.9611
    2POPC   C33  226   1.786   0.657   4.998 -0.1639 -0.3424  0.2637
    2POPC   H3X  227   1.821   0.759   5.027 -2.2534  0.9968 -1.7468
    2POPC   H3Y  228   1.677   0.655   5.022 -0.2189  3.6505  0.7158
    2POPC   C34  229   1.794   0.625   4.848 -0.9345 -0.0132  0.1483
    2POPC   H4X  230   1.729   0.538   4.828 -0.3821 -0.3660 -0.1237
    2POPC   H4Y  231   1.894   0.584   4.824 -0.9361 -0.7628  1.3765
    2POPC   C35  232   1.756   0.743   4.758 -0.2202 -0.3558 -0.5992
    2POPC   H5X  233   1.769   0.701   4.656  0.1776 -1.0311 -0.2757
    2POPC   H5Y  234   1.835   0.821   4.765 -1.3442  0.9354 -2.0528
    2POPC   C36  235   1.614   0.796   4.781  0.0318  0.0292  0.0649
    2POPC   H6X  236   1.630   0.868   4.864 -0.0335  0.8280 -0.6172
    2POPC   H6Y  237   1.539   0.719   4.810 -0.6703  1.4360  2.0785
    2POPC   C37  238   1.567   0.864   4.653  0.0696  0.0389  0.0563
    2POPC   H7X  239   1.563   0.784   4.576  2.0054 -2.0821  2.0651
    2POPC   H7Y  240   1.640   0.943   4.626  0.8705 -0.7709 -0.1910
    2POPC   C38  241   1.430   0.932   4.660 -0.3820 -0.8159 -0.2923
    2POPC   H8X  242   1.422   1.007   4.742  2.6323 -3.1184  2.2461
    2POPC   H8Y  243   1.364   0.848   4.688 -0.7531  0.9611  4.7734
    2POPC   C39  244   1.393   0.997   4.527  0.1161  0.0844 -0.0028
    2POPC   H9X  245   1.373   0.934   4.437 -0.8449  2.4384 -1.4840
    2POPC   H9Y  246   1.468   1.075   4.501  1.2413 -0.8309  0.4670
    2POPC  C310  247   1.261   1.069   4.553 -0.0196 -0.0907 -0.2026
    2POPC  H10X  248   1.273   1.128   4.646 -0.8084 -1.5143  0.8096
    2POPC  H10Y  249   1.175   1.000   4.562 -0.2761  0.1113 -1.0326
    2POPC  C311  250   1.244   1.163   4.433 -0.0183  0.0231 -0.1146
    2POPC  H11X  251   1.238   1.104   4.339 -2.4069  0.8282 -0.5205
    2POPC  H11Y  252   1.328   1.233   4.449 -0.4483  0.6428 -0.5716
    2POPC  C312  253   1.112   1.240   4.420 -0.1166 -0.1850 -0.3773
    2POPC  H12X  254   1.070   1.279   4.516 -0.3954 -0.1642 -0.5066
    2POPC  H12Y  255   1.039   1.165   4.382  1.2641 -1.7899  0.0605
    2POPC  C313  256   1.126   1.347   4.312 -0.4835  0.5390  0.2865
    2POPC  H13X  257   1.192   1.312   4.229  0.5993  1.1026  0.8917
    2POPC  H13Y  258   1.175   1.435   4.359 -0.6901  0.5268  0.5260
    2POPC  C314  259   0.995   1.381   4.240  0.0038 -0.1332 -0.9256
    2POPC  H14X  260   0.919   1.391   4.320  0.8283 -2.9125  0.2680
    2POPC  H14Y  261   0.968   1.299   4.170  0.0018 -1.3726  0.5131
    2POPC  C315  262   1.008   1.506   4.152 -0.1885  0.1446 -0.5598
    2POPC  H15X  263   1.036   1.591   4.217 -0.6644 -0.9211  1.0800
    2POPC  H15Y  264   0.910   1.520   4.102 -0.1434 -1.7760 -1.2407
    2POPC  C316  265   1.109   1.495   4.038  0.1546 -0.0766 -0.2341
    2POPC  H16X  266   1.215   1.482   4.071 -0.1746 -2.1946  0.0419
    2POPC  H16Y  267   1.098   1.591   3.983 -0.1714 -0.8986 -1.6257
    2POPC  H16Z  268   1.079   1.406   3.979  1.6657  0.0069 -1.1755
    3POPC     N  269   4.980   5.084   6.264 -0.5028  0.2401  0.2431
    3POPC   C12  270   5.004   5.091   6.115 -0.2231 -0.2801  0.2622
    3POPC  H12A  274   5.032   4.996   6.071 -1.7516 -0.0102 -1.3860
    3POPC  H12B  275   5.085   5.160   6.098 -0.1324 -0.6603 -0.9129
    3POPC   C13  271   4.941   5.217   6.325 -0.3383  0.1415  0.5616
    3POPC  H13A  276   4.910   5.183   6.423 -2.6554 -0.6572 -0.4051
    3POPC  H13B  277   5.013   5.296   6.311  0.4788 -0.6544  0.2482
    3POPC  H13C  278   4.853   5.247   6.270  0.5449  3.6001  0.9371
    3POPC   C14  272   4.881   4.976   6.298 -0.3444 -0.0506 -0.2140
    3POPC  H14A  279   4.872   4.967   6.405  0.7287  0.8948 -0.0371
    3POPC  H14B  280   4.786   5.002   6.253 -1.4689 -1.6140  1.2081
    3POPC  H14C  281   4.904   4.879   6.258 -0.6322 -0.9116  1.6473
    3POPC   C15  273   5.117   5.049   6.318 -0.4945 -0.4914 -0.2542
    3POPC  H15A  282   5.188   5.111   6.266 -0.8145 -0.5744 -0.8052
    3POPC  H15B  283   5.138   4.947   6.287 -0.4713 -0.4354 -0.4232
    3POPC  H15C  284   5.124   5.057   6.425 -0.7119  1.2259 -0.3624
    3POPC   C11  285   4.890   5.136   6.022  0.1233  0.0344 -0.0124
    3POPC  H11A  286   4.800   5.075   6.048  1.4209 -1.3866  1.2778
    3POPC  H11B  287   4.914   5.122   5.915 -0.9935 -1.8154 -0.0556
    3POPC     P  288   4.702   5.305   6.020  0.2008 -0.4037 -0.3937
    3POPC   O13  289   4.676   5.450   6.038 -0.2608 -0.6718  1.1830
    3POPC   O14  290   4.636   5.219   6.120  0.4526 -0.1512 -0.0127
    3POPC   O12  291   4.859   5.275   6.028  0.2762  0.0717 -0.0765
    3POPC   O11  292   4.666   5.259   5.871 -0.0323 -0.5431 -0.2949
    3POPC    C1  293   4.740   5.324   5.766 -0.4686 -0.1953 -0.3895
    3POPC    HA  294   4.740   5.254   5.679  1.2556  0.7053 -1.1285
    3POPC    HB  295   4.845   5.341   5.798 -1.3380  1.2921  1.8131
    3POPC    C2  296   4.683   5.459   5.719  0.0138  0.1654  0.0612
    3POPC    HS  297   4.645   5.527   5.798 -1.8439  1.0264 -1.5492
    3POPC   O21  298   4.572   5.432   5.634 -0.0209 -0.1244  0.1951
    3POPC   C21  299   4.494   5.537   5.606 -0.2077 -0.1885  0.4679
    3POPC   O22  300   4.493   5.646   5.660  0.3514 -0.2080  0.5183
    3POPC   C22  301   4.406   5.486   5.492  0.4531  0.0358 -0.1462
    3POPC   H2R  302   4.300   5.504   5.521  0.1096  0.5241 -1.6675
    3POPC   H2S  303   4.425   5.380   5.463 -1.6100 -0.7534  1.2632
    3POPC    C3  304   4.796   5.519   5.633 -0.2049  0.0582 -0.2981
    3POPC    HX  305   4.863   5.565   5.708 -1.7170  2.7946 -0.5462
    3POPC    HY  306   4.759   5.605   5.572  2.5769 -1.5531 -4.5020
    3POPC   O31  307   4.854   5.426   5.541  0.1019  0.0765 -0.1202
    3POPC   C31  308   4.971   5.476   5.501  0.2413  0.1328  0.3510
    3POPC   O32  309   5.021   5.583   5.532 -0.2109  0.4006  0.1457
    3POPC   C32  310   5.030   5.386   5.393  0.1531  0.0385  0.3803
    3POPC   H2X  311   4.949   5.369   5.320 -0.3585  0.6106  0.8065
    3POPC   H2Y  312   5.067   5.290   5.435  1.1563 -0.6369 -1.9298
    3POPC   C23  313   4.436   5.577   5.373  0.0457  0.0764 -0.2165
    3POPC   H3R  314   4.406   5.683   5.390 -0.4217  0.0141 -0.6492
    3POPC   H3S  315   4.367   5.526   5.303  1.4720 -0.6724 -1.0789
    3POPC   C24  316   4.574   5.552   5.312  0.0903  0.2085 -0.1724
    3POPC   H4R  317   4.598   5.443   5.304 -1.4825 -0.1528 -0.1052
    3POPC   H4S  318   4.652   5.600   5.374  1.7822 -0.1583 -1.9600
    3POPC   C25  319   4.586   5.623   5.178 -0.3220 -0.0291 -0.3354
    3POPC   H5R  320   4.535   5.722   5.188 -1.0692 -0.4820  0.3208
    3POPC   H5S  321   4.526   5.574   5.098  0.1729 -1.6041  0.2633
    3POPC   C26  322   4.730   5.639   5.131 -0.2658 -0.3953 -0.2864
    3POPC   H6R  323   4.790   5.674   5.218  0.1931  1.0708 -1.1610
    3POPC   H6S  324   4.752   5.715   5.052  1.5420  0.5367  1.0694
    3POPC   C27  325   4.806   5.518   5.075  0.1313 -0.4750  0.4152
    3POPC   H7R  326   4.816   5.439   5.152  1.0128 -0.1684  0.6176
    3POPC   H7S  327   4.904   5.557   5.042 -0.1378 -0.4661 -0.3876
    3POPC   C28  328   4.734   5.464   4.951  0.2785 -0.1844  0.2047
    3POPC   H8R  329   4.699   5.547   4.886  1.3100 -0.7179 -1.0435
    3POPC   H8S  330   4.650   5.399   4.984 -0.5095  1.0893  0.7588
    3POPC   C29  331   4.819   5.383   4.858  0.0171 -0.1701 -0.0459
    3POPC   H91  332   4.852   5.435   4.766 -1.5827  0.2510 -0.4025
    3POPC  C210  333   4.870   5.261   4.878 -0.4907 -0.3281  0.2913
    3POPC  H101  334   4.934   5.208   4.806  1.0741  0.0689  1.3879
    3POPC  C211  335   4.850   5.184   5.006 -0.1868  0.0190  0.5461
    3POPC  H11R  336   4.748   5.208   5.043 -0.8636 -0.4992 -0.9552
    3POPC  H11S  337   4.926   5.215   5.081 -0.2683 -0.1844  0.7135
    3POPC  C212  338   4.860   5.034   4.979 -0.1700  0.0472  0.3943
    3POPC  H12R  339   4.782   4.996   4.910  2.1530 -0.8591 -1.8092
    3POPC  H12S  340   4.846   4.970   5.069 -0.7556  1.2940  1.2028
    3POPC  C213  341   4.989   4.989   4.910 -0.3064  0.6100 -0.2282
    3POPC  H13R  342   4.989   5.044   4.813  1.7691  0.2478 -0.4510
    3POPC  H13S  343   4.981   4.879   4.901 -0.2155  0.5188  0.7992
    3POPC  C214  344   5.122   5.022   4.978 -0.1256  0.6250 -0.5861
    3POPC  H14R  345   5.133   5.132   4.981 -0.9896  0.6827  1.2848
    3POPC  H14S  346   5.211   4.975   4.932  0.4620  0.0933  1.0424
    3POPC  C215  347   5.127   4.965   5.120  0.1495  0.3871 -0.6911
    3POPC  H15R  348   5.095   4.859   5.109  0.1230  0.1659  1.3480
    3POPC  H15S  349   5.057   5.010   5.194 -2.0949  0.1206 -2.5979
    3POPC  C216  350   5.269   4.950   5.173 -0.1808  0.0951  0.1194
    3POPC  H16R  351   5.308   5.054   5.182  0.2727 -0.0261 -0.4185
    3POPC  H16S  352   5.332   4.883   5.110  1.9500 -0.0595  2.3008
    3POPC  C217  353   5.275   4.895   5.316  0.4522  0.0234  0.0669
    3POPC  H17R  354   5.217   4.971   5.372 -1.0286 -0.1216 -1.2385
    3POPC  H17S  355   5.380   4.897   5.351  0.8476 -1.1625 -1.0075
    3POPC  C218  356   5.209   4.757   5.327 -0.5522  0.4573 -0.4384
    3POPC  H18R  357   5.099   4.768   5.316 -0.8266 -1.7877 -0.1457
    3POPC  H18S  358   5.223   4.710   5.426  1.3711 -0.2981 -1.0376
    3POPC  H18T  359   5.255   4.696   5.246  1.5571  1.0101  0.2984
    3POPC   C33  360   5.140   5.458   5.314 -0.3210  0.5937  0.2232
    3POPC   H3X  361   5.236   5.467   5.368  0.1705 -2.5465 -0.0227
    3POPC   H3Y  362   5.100   5.560   5.296  0.6784  0.5051 -2.8301
    3POPC   C34  363   5.170   5.387   5.182 -0.2624 -0.2158  0.6717
    3POPC   H4X  364   5.077   5.363   5.127  0.4576 -1.7872  0.1082
    3POPC   H4Y  365   5.217   5.291   5.213  1.9466  0.8272  0.6682
    3POPC   C35  366   5.278   5.449   5.093 -0.2472 -0.2049  0.6972
    3POPC   H5X  367   5.364   5.431   5.161 -0.1241 -2.2667  0.0073
    3POPC   H5Y  368   5.253   5.557   5.086 -0.4959 -0.3136 -0.1478
    3POPC   C36  369   5.288   5.399   4.949 -0.1755  0.1044  0.5928
    3POPC   H6X  370   5.264   5.292   4.968 -0.1054  0.4201  2.5681
    3POPC   H6Y  371   5.384   5.402   4.893 -0.5400  2.7579  0.0305
    3POPC   C37  372   5.173   5.453   4.863  0.1191  0.3237  0.3384
    3POPC   H7X  373   5.079   5.419   4.910 -0.0618  0.5017  0.1064
    3POPC   H7Y  374   5.179   5.407   4.762 -2.5202  1.6797 -0.4599
    3POPC   C38  375   5.181   5.605   4.844  0.0102  0.2834 -0.0192
    3POPC   H8X  376   5.283   5.633   4.810  1.0336 -1.0159  1.8724
    3POPC   H8Y  377   5.167   5.661   4.938  1.5552  1.3131 -0.3834
    3POPC   C39  378   5.075   5.667   4.754 -0.3922 -0.5213 -0.1074
    3POPC   H9X  379   5.099   5.775   4.763 -0.7004 -0.4703  0.1408
    3POPC   H9Y  380   4.976   5.642   4.799  0.2582 -0.2001  1.5519
    3POPC  C310  381   5.071   5.609   4.613  0.3828  0.3200 -0.4818
    3POPC  H10X  382   5.050   5.500   4.614 -1.0159  0.5727 -1.5664
    3POPC  H10Y  383   5.173   5.609   4.569  0.3767 -0.5547 -0.5190
    3POPC  C311  384   4.974   5.665   4.509 -0.4765 -1.1084 -0.4731
    3POPC  H11X  385   4.971   5.602   4.418 -3.2451 -1.9894  0.1942
    3POPC  H11Y  386   4.998   5.771   4.485 -1.3430 -0.6940  0.4444
    3POPC  C312  387   4.829   5.673   4.558 -0.3620  0.0814 -0.3086
    3POPC  H12X  388   4.791   5.768   4.515  1.1098  1.8677  2.1835
    3POPC  H12Y  389   4.808   5.685   4.666 -0.0721  0.2420 -0.2697
    3POPC  C313  390   4.746   5.557   4.503 -0.4147  0.1565 -0.3899
    3POPC  H13X  391   4.656   5.536   4.565 -0.1545 -0.9533 -0.3704
    3POPC  H13Y  392   4.804   5.462   4.495 -1.1870 -0.6825  2.9374
    3POPC  C314  393   4.687   5.574   4.363 -0.1648 -0.2349 -0.5417
    3POPC  H14X  394   4.767   5.587   4.287 -0.4915  0.1765 -0.8146
    3POPC  H14Y  395   4.636   5.672   4.358 -0.0280 -0.0111  1.7636
    3POPC  C315  396   4.593   5.457   4.332  0.4425 -0.7293 -0.5422
    3POPC  H15X  397   4.522   5.469   4.416  0.8702 -1.0661 -0.1330
    3POPC  H15Y  398   4.650   5.362   4.340  1.2501 -0.1154  1.2424
    3POPC  C316  399   4.522   5.475   4.198 -0.2087 -0.0907 -0.1119
    3POPC  H16X  400   4.589   5.491   4.110  0.1681 -0.7389  0.0580
    3POPC  H16Y  401   4.454   5.563   4.200 -0.5373 -0.2741 -1.9174
    3POPC  H16Z  402   4.461   5.383   4.186 -0.7207 -0.0170  1.7396
    4POPC     N  403   3.546   3.850   6.410 -0.3766 -0.0852 -0.1253
    4POPC   C12  404   3.458   3.847   6.287 -0.3123  0.1335 -0.1774
    4POPC  H12A  408   3.462   3.949   6.249 -0.5917 -0.3885 -1.6298
    4POPC  H12B  409   3.357   3.834   6.322 -0.6250 -1.8260 -1.7649
    4POPC   C13  405   3.548   3.716   6.479 -0.8396  0.0212  0.0960
    4POPC  H13A  410   3.452   3.668   6.473  0.4796 -2.9136  1.4287
    4POPC  H13B  411   3.612   3.653   6.419 -2.2505  0.1965 -1.6440
    4POPC  H13C  412   3.596   3.729   6.575  1.2119 -1.1826 -0.7290
    4POPC   C14  406   3.689   3.886   6.375 -0.2517 -0.0947  0.3750
    4POPC  H14A  413   3.759   3.903   6.456  1.4483  3.0809 -1.6684
    4POPC  H14B  414   3.728   3.811   6.309  0.4729 -0.4749  1.2249
    4POPC  H14C  415   3.689   3.979   6.320  1.4734 -0.9601 -1.1329
    4POPC   C15  407   3.491   3.949   6.511  0.1167 -0.1361  0.1950
    4POPC  H15A  416   3.556   3.949   6.597 -1.2140 -0.5433  1.2142
    4POPC  H15B  417   3.391   3.916   6.535 -0.3886  0.7024 -0.7455
    4POPC  H15C  418   3.499   4.046   6.464  1.1542 -1.0427 -1.5841
    4POPC   C11  419   3.491   3.752   6.172 -0.2430 -0.0377 -0.0158
    4POPC  H11A  420   3.596   3.771   6.138 -0.1290  2.6310  1.6340
    4POPC  H11B  421   3.426   3.786   6.088 -0.4578  1.0794  0.5875
    4POPC     P  422   3.586   3.506   6.171 -0.1561  0.0932  0.5864
    4POPC   O13  423   3.533   3.371   6.205  0.0980 -0.0899  0.2487
    4POPC   O14  424   3.711   3.545   6.240 -0.0957  0.0551  0.4979
    4POPC   O12  425   3.473   3.614   6.204 -0.3442  0.0207  0.1802
    4POPC   O11  426   3.607   3.515   6.013 -0.2394 -0.6638  0.5281
    4POPC    C1  427   3.497   3.474   5.930 -0.3080  0.0321  0.2698
    4POPC    HA  428   3.469   3.550   5.854  0.3259 -0.7332 -0.7303
    4POPC    HB  429   3.404   3.463   5.989  0.8899  0.7799  2.3673
    4POPC    C2  430   3.525   3.339   5.862  0.1007 -0.0929  0.6813
    4POPC    HS  431   3.528   3.258   5.939 -0.8103 -1.2093 -0.4380
    4POPC   O21  432   3.648   3.350   5.790  0.2846 -0.1745  0.9838
    4POPC   C21  433   3.678   3.231   5.736 -0.6559  0.2623 -0.5287
    4POPC   O22  434   3.627   3.122   5.758  0.4448 -0.1755 -0.0972
    4POPC   C22  435   3.801   3.247   5.648  0.1553 -0.6212  0.4216
    4POPC   H2R  436   3.899   3.244   5.700  0.6049 -2.3035 -0.5043
    4POPC   H2S  437   3.786   3.346   5.599 -0.2569 -0.5114  0.7648
    4POPC    C3  438   3.405   3.313   5.770  0.5036 -0.0157  0.1294
    4POPC    HX  439   3.318   3.310   5.840  0.4055  0.1822  0.0136
    4POPC    HY  440   3.398   3.212   5.723 -1.2250  0.0150  0.3034
    4POPC   O31  441   3.380   3.418   5.677  0.3863  0.1219  0.3147
    4POPC   C31  442   3.432   3.400   5.555  0.4438  0.2803  0.3157
    4POPC   O32  443   3.491   3.300   5.517 -0.1294  0.2932 -0.6127
    4POPC   C32  444   3.401   3.518   5.464 -0.0978  0.1201  0.2948
    4POPC   H2X  445   3.389   3.616   5.515 -4.7567 -0.2439  0.1002
    4POPC   H2Y  446   3.299   3.514   5.420  0.3175 -2.6049 -0.5279
    4POPC   C23  447   3.810   3.132   5.547  0.1972 -0.1404 -0.1268
    4POPC   H3R  448   3.716   3.146   5.489 -0.5638 -3.6121  0.1732
    4POPC   H3S  449   3.812   3.027   5.582  1.0769 -0.2275 -0.4455
    4POPC   C24  450   3.922   3.134   5.443  0.1356 -0.3006 -0.1957
    4POPC   H4R  451   4.020   3.104   5.487 -0.6161 -0.4813  1.4207
    4POPC   H4S  452   3.926   3.239   5.408  0.3326  0.0578  0.8952
    4POPC   C25  453   3.883   3.049   5.322 -0.2422 -0.2243 -0.1295
    4POPC   H5R  454   3.806   3.108   5.268 -0.2816 -0.3433 -0.2030
    4POPC   H5S  455   3.844   2.947   5.344  2.9161 -1.2434  1.0598
    4POPC   C26  456   3.999   3.028   5.225 -0.5106 -0.0212 -0.4932
    4POPC   H6R  457   4.084   2.996   5.289 -0.5217 -1.9596 -1.4221
    4POPC   H6S  458   4.025   3.125   5.179  0.5891  1.4422  3.0339
    4POPC   C27  459   3.968   2.920   5.121  0.3761 -0.5255 -0.2364
    4POPC   H7R  460   3.950   2.826   5.179 -1.5079  0.5560  0.9778
    4POPC   H7S  461   4.055   2.912   5.053  2.8494  0.4601  2.6728
    4POPC   C28  462   3.847   2.958   5.037  0.6855  0.0437 -0.4266
    4POPC   H8R  463   3.852   3.067   5.016  0.6322  0.1370  0.0406
    4POPC   H8S  464   3.751   2.959   5.094 -0.0159 -0.9596 -1.5713
    4POPC   C29  465   3.818   2.869   4.919 -0.2453  0.3868 -0.4645
    4POPC   H91  466   3.762   2.779   4.948  0.6498  0.8701  2.9999
    4POPC  C210  467   3.862   2.896   4.796 -0.1163 -0.0504 -0.5135
    4POPC  H101  468   3.838   2.834   4.709 -1.0975  1.2268 -1.1749
    4POPC  C211  469   3.950   3.011   4.754  0.2167 -0.0712  0.1248
    4POPC  H11R  470   4.047   2.965   4.725 -0.5370 -1.4164 -0.3124
    4POPC  H11S  471   3.978   3.081   4.835 -0.5633  0.2277  0.1383
    4POPC  C212  472   3.891   3.075   4.628  0.6132  0.2374  0.0955
    4POPC  H12R  473   3.783   3.093   4.641  0.1346 -0.8485 -2.0952
    4POPC  H12S  474   3.907   3.011   4.539  0.7368  0.1949  0.1482
    4POPC  C213  475   3.937   3.220   4.610  0.3902  0.3200  0.1945
    4POPC  H13R  476   4.048   3.229   4.613  0.6943 -2.7897 -0.0735
    4POPC  H13S  477   3.903   3.273   4.702  1.4131 -1.9684  1.9482
    4POPC  C214  478   3.882   3.285   4.483 -0.0404  0.1224  0.2767
    4POPC  H14R  479   3.776   3.258   4.465  0.4699 -0.1150 -2.6797
    4POPC  H14S  480   3.941   3.237   4.402 -1.1014 -2.0848  0.7836
    4POPC  C215  481   3.895   3.437   4.479 -0.5541  0.1563 -0.0986
    4POPC  H15R  482   3.996   3.471   4.512  0.0917 -0.9912 -0.8465
    4POPC  H15S  483   3.825   3.465   4.560 -0.7848 -2.1075  0.5113
    4POPC  C216  484   3.861   3.501   4.344 -0.3001  0.3389 -0.0772
    4POPC  H16R  485   3.939   3.463   4.275 -0.5158  1.0692 -0.7430
    4POPC  H16S  486   3.880   3.610   4.359 -0.9374  0.2054  1.8407
    4POPC  C217  487   3.712   3.493   4.307 -0.2475  0.0389 -0.2221
    4POPC  H17R  488   3.648   3.530   4.389  0.6800  1.8410 -0.2655
    4POPC  H17S  489   3.689   3.387   4.283 -0.0966  0.2773 -1.4968
    4POPC  C218  490   3.686   3.586   4.188  0.4957  0.5853  0.0340
    4POPC  H18R  491   3.587   3.565   4.142  0.8194  0.7937 -0.7507
    4POPC  H18S  492   3.777   3.577   4.126  0.4340 -0.3361  0.0714
    4POPC  H18T  493   3.691   3.694   4.213  0.7397  0.4739  0.4768
    4POPC   C33  494   3.517   3.539   5.367  0.2166 -0.3329  0.5678
    4POPC   H3X  495   3.524   3.461   5.288 -1.0732 -0.2193  0.3224
    4POPC   H3Y  496   3.622   3.533   5.404  0.5729 -0.5436 -0.4642
    4POPC   C34  497   3.508   3.670   5.288 -0.2331 -0.3867  0.5305
    4POPC   H4X  498   3.611   3.679   5.248 -1.0456  2.3211 -1.0763
    4POPC   H4Y  499   3.510   3.759   5.354  2.3064 -0.6707  0.8939
    4POPC   C35  500   3.393   3.682   5.187  0.0298 -0.2184  0.2522
    4POPC   H5X  501   3.300   3.687   5.247  0.7549 -0.6934  1.4394
    4POPC   H5Y  502   3.385   3.601   5.111 -1.2428  1.8373 -1.8737
    4POPC   C36  503   3.404   3.803   5.094  0.3455 -0.2990  0.1830
    4POPC   H6X  504   3.512   3.808   5.070  0.3192 -0.3725  0.0480
    4POPC   H6Y  505   3.376   3.900   5.139  0.1266 -0.0513 -0.4783
    4POPC   C37  506   3.329   3.776   4.963 -0.5933 -0.0082  0.6587
    4POPC   H7X  507   3.221   3.766   4.987 -0.9131  1.5486 -0.0474
    4POPC   H7Y  508   3.369   3.687   4.911 -1.4885 -0.1240  0.1592
    4POPC   C38  509   3.357   3.888   4.863 -0.1108 -0.3558  0.4055
    4POPC   H8X  510   3.466   3.904   4.867 -0.1071 -0.9083  2.9402
    4POPC   H8Y  511   3.296   3.972   4.903  2.2265  1.5247  0.1283
    4POPC   C39  512   3.307   3.854   4.722  0.1535 -0.0991  0.2481
    4POPC   H9X  513   3.238   3.767   4.726  3.0171 -2.3580  1.8239
    4POPC   H9Y  514   3.389   3.818   4.658  0.1060 -2.3479  1.4151
    4POPC  C310  515   3.226   3.968   4.658 -0.1668 -0.3657  0.1770
    4POPC  H10X  516   3.183   4.039   4.732 -1.6809 -1.2044  0.1248
    4POPC  H10Y  517   3.142   3.919   4.604 -2.3649  2.7545  0.6789
    4POPC  C311  518   3.310   4.057   4.567 -0.2506 -0.1965  0.2663
    4POPC  H11X  519   3.392   4.105   4.625  0.0968 -0.4953  0.0214
    4POPC  H11Y  520   3.233   4.129   4.532 -0.3185 -1.3265 -2.0378
    4POPC  C312  521   3.361   4.000   4.434  0.4958 -0.1263  0.5235
    4POPC  H12X  522   3.430   3.915   4.456  0.4860 -0.5362 -0.9900
    4POPC  H12Y  523   3.424   4.066   4.371  2.3722 -0.8622  1.5736
    4POPC  C313  524   3.239   3.952   4.356  0.5838 -0.3244  0.5077
    4POPC  H13X  525   3.170   4.038   4.344  3.2380  1.9038  0.5322
    4POPC  H13Y  526   3.181   3.871   4.405  0.7480  0.5728  2.2311
    4POPC  C314  527   3.284   3.902   4.219  0.1186 -0.1395  0.2851
    4POPC  H14X  528   3.338   3.805   4.233 -0.6208 -0.1820  3.0228
    4POPC  H14Y  529   3.347   3.977   4.167 -0.2609 -0.7586 -1.0918
    4POPC  C315  530   3.167   3.876   4.125  0.2077  0.1568  0.0929
    4POPC  H15X  531   3.079   3.855   4.190  0.9499 -0.3131  0.9471
    4POPC  H15Y  532   3.206   3.800   4.054 -1.2770  1.0424 -1.7399
    4POPC  C316  533   3.129   4.002   4.046  0.0592 -0.1571 -0.3377
    4POPC  H16X  534   3.049   3.980   3.971  0.9873  2.4818 -2.1792
    4POPC  H16Y  535   3.223   4.035   3.996 -0.6340  0.0925 -1.5043
    4POPC  H16Z  536   3.093   4.079   4.117  0.0336 -1.2523  0.8613
    5POPC     N  537   7.425   5.021   5.984  0.0318  0.2616 -0.3161
    5POPC   C12  538   7.517   5.032   5.864 -0.1865 -0.0405 -0.5114
    5POPC  H12A  542   7.545   5.131   5.833 -0.2668 -0.1512 -0.9354
    5POPC  H12B  543   7.463   4.986   5.783 -0.1079 -0.6590 -0.2187
    5POPC   C13  539   7.507   5.069   6.101  0.3986 -0.3266 -0.3228
    5POPC  H13A  544   7.600   5.015   6.102  2.5658  3.2043  1.3128
    5POPC  H13B  545   7.526   5.175   6.108 -2.4543  0.1323  2.0412
    5POPC  H13C  546   7.461   5.033   6.192 -2.0495  2.3274 -0.4220
    5POPC   C14  540   7.299   5.099   5.959  0.4270  0.6948 -0.9834
    5POPC  H14A  547   7.229   5.089   6.041  1.4411  1.7221  0.0411
    5POPC  H14B  548   7.314   5.205   5.939 -1.6662  1.3099  0.5074
    5POPC  H14C  549   7.236   5.053   5.885 -1.4030  0.4034  0.6982
    5POPC   C15  541   7.392   4.874   5.999 -0.1977  0.3417 -0.0318
    5POPC  H15A  550   7.332   4.863   6.088 -0.1954  1.8849  0.1700
    5POPC  H15B  551   7.483   4.817   6.013 -0.6141  0.0225  1.4016
    5POPC  H15C  552   7.342   4.840   5.910 -1.4000  1.6088  0.1541
    5POPC   C11  553   7.656   4.970   5.866  0.0521  0.5109  0.2373
    5POPC  H11A  554   7.723   5.048   5.909  0.3411  0.1419  0.4680
    5POPC  H11B  555   7.697   4.950   5.765 -1.5891 -0.7252 -0.1989
    5POPC     P  556   7.796   4.821   6.016 -0.1137  0.2083 -0.1140
    5POPC   O13  557   7.782   4.861   6.158  0.7764  0.1246  0.0030
    5POPC   O14  558   7.914   4.873   5.943 -0.0809 -0.0381 -0.2371
    5POPC   O12  559   7.658   4.848   5.941 -0.2597  0.5278  0.2693
    5POPC   O11  560   7.803   4.661   6.010  0.1043  0.2527 -1.2076
    5POPC    C1  561   7.927   4.590   6.015 -0.2625 -0.3154  0.0850
    5POPC    HA  562   7.912   4.481   6.030  1.0661 -0.7057 -1.2523
    5POPC    HB  563   0.025   4.633   6.098 -0.3230 -0.8052  0.4177
    5POPC    C2  564   0.063   4.597   5.896 -0.2988 -0.1973  0.0295
    5POPC    HS  565   0.089   4.701   5.867 -2.2430  0.3212  0.0111
    5POPC   O21  566   7.961   4.537   5.783 -0.4414  0.1320 -0.0662
    5POPC   C21  567   0.039   4.577   5.663  0.3743  0.1234  0.2029
    5POPC   O22  568   0.129   4.656   5.639  0.6682 -0.1556  0.3859
    5POPC   C22  569   7.935   4.483   5.563  0.5526 -0.0509  0.2198
    5POPC   H2R  570   7.825   4.492   5.579  0.9387  0.8624  2.6380
    5POPC   H2S  571   7.961   4.378   5.586 -1.6026 -1.0816 -1.8611
    5POPC    C3  572   0.190   4.517   5.929  0.0514  0.3903  0.1192
    5POPC    HX  573   0.161   4.426   5.987 -2.8621  2.1004  1.4472
    5POPC    HY  574   0.250   4.579   5.998 -1.0155  2.2707 -0.6082
    5POPC   O31  575   0.271   4.474   5.820  0.0173 -0.4466  0.4211
    5POPC   C31  576   0.352   4.371   5.845 -0.2922 -0.7796  0.0563
    5POPC   O32  577   0.382   4.328   5.955  0.6207  0.2465  0.2136
    5POPC   C32  578   0.409   4.312   5.716  0.0093 -0.0614 -0.1380
    5POPC   H2X  579   0.433   4.206   5.735  1.0247 -0.2653 -2.4121
    5POPC   H2Y  580   0.504   4.363   5.688  0.0020  0.6825  1.1204
    5POPC   C23  581   0.009   4.517   5.419  0.4468 -0.4054  0.0989
    5POPC   H3R  582   0.117   4.502   5.395  1.0863  2.9248  0.7153
    5POPC   H3S  583   7.956   4.624   5.394 -0.9887 -0.0430  2.3830
    5POPC   C24  584   7.869   4.437   5.337 -0.0473  0.4649 -0.1896
    5POPC   H4R  585   7.772   4.489   5.326 -0.6277 -0.7226 -0.6885
    5POPC   H4S  586   7.848   4.345   5.395 -2.1553  0.8664 -0.2752
    5POPC   C25  587   7.921   4.397   5.199  0.2255  0.1297  0.0084
    5POPC   H5R  588   7.905   4.288   5.189 -1.4941  0.4917 -1.4003
    5POPC   H5S  589   0.064   4.424   5.177  0.4002  0.0047  0.4849
    5POPC   C26  590   7.842   4.454   5.081  0.3275 -0.0951 -0.1689
    5POPC   H6R  591   7.858   4.564   5.070 -0.4233  0.0314 -0.0762
    5POPC   H6S  592   7.732   4.459   5.097  0.4834  1.6744  0.5205
    5POPC   C27  593   7.874   4.395   4.944  0.1902 -0.3811 -0.0783
    5POPC   H7R  594   7.880   4.285   4.957  1.8695 -0.3416 -0.3611
    5POPC   H7S  595   0.013   4.433   4.917 -0.5223  1.8832  0.2103
    5POPC   C28  596   7.771   4.438   4.839  0.4279  0.0875 -0.1210
    5POPC   H8R  597   7.671   4.399   4.867 -0.5583  2.5992 -0.0540
    5POPC   H8S  598   7.796   4.377   4.750  0.2502  1.9934 -1.4977
    5POPC   C29  599   7.759   4.586   4.818 -0.0468  0.0153 -0.3543
    5POPC   H91  600   7.825   4.654   4.874 -0.9649 -0.2430  1.0919
    5POPC  C210  601   7.679   4.630   4.720  0.1358 -0.1343 -0.5709
    5POPC  H101  602   7.660   4.738   4.705  0.0015  0.0788  1.0378
    5POPC  C211  603   7.586   4.558   4.627  0.3114 -0.3314 -0.5929
    5POPC  H11R  604   7.486   4.604   4.640  0.3059 -0.5293  0.0945
    5POPC  H11S  605   7.591   4.451   4.657 -0.1775  0.4972  2.6513
    5POPC  C212  606   7.629   4.581   4.482 -0.2840  0.0740 -0.7071
    5POPC  H12R  607   7.585   4.505   4.415 -1.0711  2.5295 -3.0568
    5POPC  H12S  608   7.740   4.569   4.483 -0.3738 -0.7743  0.2224
    5POPC  C213  609   7.599   4.721   4.429 -0.3291  0.3279 -0.0086
    5POPC  H13R  610   7.648   4.731   4.330 -1.1359  2.9467 -0.1957
    5POPC  H13S  611   7.635   4.794   4.505  1.9930 -1.8892  1.0892
    5POPC  C214  612   7.450   4.740   4.402 -0.2805 -0.1203 -0.5840
    5POPC  H14R  613   7.389   4.714   4.491  0.2614  1.3224  0.2114
    5POPC  H14S  614   7.417   4.690   4.308 -0.0779 -0.7748 -0.3059
    5POPC  C215  615   7.419   4.889   4.380 -0.2140 -0.0655 -0.3026
    5POPC  H15R  616   7.430   4.951   4.471  0.1070  2.6688 -2.1539
    5POPC  H15S  617   7.312   4.894   4.352 -0.1545 -0.6613 -0.6576
    5POPC  C216  618   7.518   4.948   4.279  0.1144  0.7254  0.4773
    5POPC  H16R  619   7.542   4.870   4.203 -0.5736  0.6028  0.3800
    5POPC  H16S  620   7.616   4.954   4.331  0.2585 -2.5206  0.6883
    5POPC  C217  621   7.473   5.085   4.228 -0.2532  0.7037  0.7420
    5POPC  H17R  622   7.493   5.162   4.306  5.0022  1.0540 -0.7977
    5POPC  H17S  623   7.365   5.089   4.203 -0.7429 -0.6349  2.5549
    5POPC  C218  624   7.546   5.137   4.104  0.2390 -0.2598  0.6275
    5POPC  H18R  625   7.535   5.072   4.014 -3.8644  1.2985 -0.1074
    5POPC  H18S  626   7.653   5.154   4.129  1.1051 -1.7078 -1.9363
    5POPC  H18T  627   7.500   5.233   4.074  1.5297  0.2368  0.2331
    5POPC   C33  628   0.311   4.322   5.600  0.0050  0.1670 -0.1167
    5POPC   H3X  629   0.292   4.429   5.575  0.1625  0.1724 -0.2119
    5POPC   H3Y  630   0.217   4.269   5.625 -0.3161 -0.2954 -2.1642
    5POPC   C34  631   0.372   4.264   5.472 -0.4390 -0.8774  0.1422
    5POPC   H4X  632   0.386   4.157   5.499 -2.3643 -1.2681 -0.3342
    5POPC   H4Y  633   0.475   4.304   5.457 -1.5808  2.0148 -0.3434
    5POPC   C35  634   0.286   4.282   5.347 -0.0881 -0.0778  0.0182
    5POPC   H5X  635   0.282   4.387   5.310 -2.3054 -0.9125 -2.2896
    5POPC   H5Y  636   0.179   4.260   5.367  0.1219 -0.2713  0.9548
    5POPC   C36  637   0.336   4.198   5.229  0.8850  0.4783  0.0265
    5POPC   H6X  638   0.349   4.090   5.250  0.1219  0.5698  1.0327
    5POPC   H6Y  639   0.441   4.232   5.218  0.5469  1.1149 -1.2524
    5POPC   C37  640   0.268   4.215   5.093  0.3400  0.1146  0.2537
    5POPC   H7X  641   0.243   4.319   5.064 -2.0665 -0.8898 -1.4154
    5POPC   H7Y  642   0.168   4.167   5.105  0.3928  0.1542  0.8887
    5POPC   C38  643   0.355   4.155   4.983  0.4387  0.4298  0.1610
    5POPC   H8X  644   0.361   4.044   4.990 -1.7928  0.1622 -1.4901
    5POPC   H8Y  645   0.460   4.191   4.988  2.0575 -3.9769  0.5455
    5POPC   C39  646   0.301   4.188   4.843  0.0330 -0.2619  0.1496
    5POPC   H9X  647   0.192   4.168   4.851  0.0302  0.1683  1.3584
    5POPC   H9Y  648   0.343   4.128   4.760  0.8361  1.2581 -0.5554
    5POPC  C310  649   0.336   4.334   4.815 -0.4753 -0.1825 -0.0699
    5POPC  H10X  650   0.447   4.339   4.816 -0.4639 -0.4796  0.3457
    5POPC  H10Y  651   0.301   4.395   4.901 -2.3646  0.4270 -1.2452
    5POPC  C311  652   0.282   4.387   4.682 -0.4274 -0.0669 -0.0449
    5POPC  H11X  653   0.175   4.359   4.671 -0.1306 -1.0674 -0.4536
    5POPC  H11Y  654   0.332   4.340   4.595 -2.0415 -0.5857 -0.7142
    5POPC  C312  655   0.301   4.538   4.666 -0.0529 -0.0889  0.1957
    5POPC  H12X  656   0.408   4.570   4.662 -0.3828  0.9248 -1.1390
    5POPC  H12Y  657   0.252   4.605   4.739 -0.5867 -0.9647  0.6523
    5POPC  C313  658   0.250   4.592   4.532  0.1791  0.2454  0.2413
    5POPC  H13X  659   0.258   4.525   4.443 -1.2815  0.3841 -0.0070
    5POPC  H13Y  660   0.308   4.684   4.509 -0.3541  0.1871 -1.4331
    5POPC  C314  661   0.103   4.633   4.541  0.1559  0.0538  0.7293
    5POPC  H14X  662   0.085   4.700   4.628 -0.5493  2.2574 -1.0848
    5POPC  H14Y  663   0.037   4.546   4.562  0.6785 -0.5356 -0.0554
    5POPC  C315  664   0.050   4.698   4.414  0.9206 -0.4291  0.1591
    5POPC  H15X  665   0.109   4.788   4.387 -1.8956  1.4656  0.0701
    5POPC  H15Y  666   7.914   4.744   4.439  0.3436 -0.4990 -1.7252
    5POPC  C316  667   0.037   4.613   4.287 -0.8237  0.3110 -0.1733
    5POPC  H16X  668   0.133   4.572   4.250 -0.8437 -0.4331  0.5835
    5POPC  H16Y  669   7.962   4.681   4.208 -3.2919 -1.1418 -0.3159
    5POPC  H16Z  670   7.925   4.531   4.298 -0.2490 -0.5514 -2.2100
    6POPC     N  671   3.159   2.815   6.403 -0.3246  0.1393  0.0399
    6POPC   C12  672   3.079   2.918   6.327  0.3762  0.7145  0.0801
    6POPC  H12A  676   3.101   3.021   6.349  0.3924  0.7769 -0.2308
    6POPC  H12B  677   2.982   2.903   6.372 -0.0295  0.9051 -0.7351
    6POPC   C13  673   3.104   2.675   6.384  0.7978 -0.3262  0.2067
    6POPC  H13A  678   2.998   2.683   6.401  0.2786  2.9821 -3.8651
    6POPC  H13B  679   3.128   2.632   6.288 -0.7912 -1.7955  0.4529
    6POPC  H13C  680   3.142   2.613   6.464  0.8470  1.4778  1.6260
    6POPC   C14  674   3.307   2.825   6.374 -0.2228 -0.3128  0.3969
    6POPC  H14A  681   3.355   2.909   6.421 -1.6333  0.2828  0.7991
    6POPC  H14B  682   3.351   2.731   6.405 -0.4983 -0.6839 -0.3336
    6POPC  H14C  683   3.320   2.838   6.268 -1.0759 -1.2711  0.1619
    6POPC   C15  675   3.143   2.856   6.548  0.2632  0.0256  0.1361
    6POPC  H15A  684   3.202   2.798   6.618 -0.7151 -0.1059  0.8647
    6POPC  H15B  685   3.038   2.843   6.567  0.6005 -2.3405  0.5811
    6POPC  H15C  686   3.167   2.960   6.563 -1.1864  0.1285  1.7299
    6POPC   C11  687   3.060   2.903   6.176  0.4047 -0.3610  0.1783
    6POPC  H11A  688   2.994   2.978   6.127  1.8160 -0.4681 -1.9570
    6POPC  H11B  689   2.993   2.818   6.151 -0.9053  0.4505  0.8469
    6POPC     P  690   3.234   3.036   6.047  0.0031 -0.0776 -0.1228
    6POPC   O13  691   3.381   3.047   6.035 -0.0421  0.3196 -0.3309
    6POPC   O14  692   3.172   3.149   6.121 -0.4303  0.0061 -0.6135
    6POPC   O12  693   3.185   2.896   6.108  0.2747 -0.1547 -0.0838
    6POPC   O11  694   3.175   3.049   5.899 -0.1268  0.1356 -0.0527
    6POPC    C1  695   3.120   2.932   5.837 -0.0156 -0.2187  0.5098
    6POPC    HA  696   3.033   2.961   5.774  0.1731  1.6531  1.0718
    6POPC    HB  697   3.080   2.863   5.913 -1.3239 -1.5220 -1.3242
    6POPC    C2  698   3.218   2.856   5.746 -0.2092  0.3057 -0.1456
    6POPC    HS  699   3.287   2.817   5.824 -0.0831 -0.1096 -0.4600
    6POPC   O21  700   3.278   2.948   5.655  0.0867 -0.0023 -0.2636
    6POPC   C21  701   3.379   2.892   5.588 -0.1731 -0.2318 -0.4681
    6POPC   O22  702   3.445   2.794   5.618 -0.0887 -0.1868 -0.5051
    6POPC   C22  703   3.394   2.973   5.460  0.0462 -0.0258 -0.3131
    6POPC   H2R  704   3.399   3.083   5.477  0.1604 -0.2127  0.9714
    6POPC   H2S  705   3.301   2.958   5.402  0.9369 -0.3712 -1.6532
    6POPC    C3  706   3.134   2.745   5.680 -0.0414  0.0992 -0.0133
    6POPC    HX  707   3.080   2.695   5.763  0.9348 -0.5329  0.2529
    6POPC    HY  708   3.190   2.657   5.641  0.2318  0.3769 -0.2531
    6POPC   O31  709   3.032   2.783   5.587 -0.1812 -0.5391 -0.1216
    6POPC   C31  710   3.049   2.735   5.464 -0.0543 -0.1117 -0.2687
    6POPC   O32  711   3.153   2.684   5.425  0.1828  0.2411 -0.1050
    6POPC   C32  712   2.925   2.755   5.377  0.1296  0.9416 -0.2978
    6POPC   H2X  713   2.842   2.687   5.405  1.6220  0.4465  3.2524
    6POPC   H2Y  714   2.953   2.739   5.271 -0.4008  1.4234 -0.5106
    6POPC   C23  715   3.503   2.906   5.376  0.1016 -0.7543  0.3327
    6POPC   H3R  716   3.531   2.801   5.395  0.1698 -0.6300  0.9405
    6POPC   H3S  717   3.595   2.967   5.390 -1.3477  1.6235 -0.1038
    6POPC   C24  718   3.466   2.930   5.230  0.1748 -0.5991  0.3379
    6POPC   H4R  719   3.556   2.930   5.166 -1.0509 -0.4606 -1.4305
    6POPC   H4S  720   3.413   3.027   5.220  0.7178 -0.2137  1.1795
    6POPC   C25  721   3.380   2.817   5.173 -0.2580 -0.3567  0.5100
    6POPC   H5R  722   3.286   2.799   5.231  0.0042  0.6723  1.2580
    6POPC   H5S  723   3.442   2.725   5.183  1.8355  0.9166 -0.4475
    6POPC   C26  724   3.348   2.845   5.026 -0.0435 -0.5756  0.4223
    6POPC   H6R  725   3.309   2.948   5.016  1.1849 -0.1083  0.2586
    6POPC   H6S  726   3.260   2.781   5.002  0.3016 -0.7609 -0.3800
    6POPC   C27  727   3.466   2.819   4.931 -0.2826  0.1106 -0.0674
    6POPC   H7R  728   3.558   2.859   4.980 -0.6265  0.9802 -0.1319
    6POPC   H7S  729   3.437   2.877   4.841 -0.1746  1.1448  0.5509
    6POPC   C28  730   3.480   2.673   4.886  0.3814  0.1147  0.1221
    6POPC   H8R  731   3.379   2.637   4.859  0.5682 -0.7423  0.5661
    6POPC   H8S  732   3.508   2.609   4.972  0.0416 -0.0939  0.0779
    6POPC   C29  733   3.579   2.656   4.774  0.1124 -1.1784  0.0766
    6POPC   H91  734   3.676   2.700   4.801  0.5632 -1.5703 -0.9088
    6POPC  C210  735   3.557   2.589   4.660  0.5673 -1.0923 -0.0623
    6POPC  H101  736   3.635   2.584   4.583 -0.8829 -2.6481 -1.4647
    6POPC  C211  737   3.425   2.535   4.611 -0.2124  0.0710  0.7078
    6POPC  H11R  738   3.414   2.557   4.503 -0.3835  1.2116  0.9557
    6POPC  H11S  739   3.333   2.580   4.654 -0.7497 -0.7454  0.4128
    6POPC  C212  740   3.437   2.383   4.628  0.1674 -0.0927 -0.9709
    6POPC  H12R  741   3.429   2.358   4.736 -1.1233  0.1240 -1.0119
    6POPC  H12S  742   3.538   2.354   4.594  0.1484 -0.8545 -0.3757
    6POPC  C213  743   3.336   2.314   4.537 -0.7418 -0.1262  0.0539
    6POPC  H13R  744   3.345   2.343   4.430  1.6804  0.0017  0.2737
    6POPC  H13S  745   3.237   2.344   4.577 -0.1953 -1.4918  2.4745
    6POPC  C214  746   3.352   2.164   4.559  0.0781  0.0244  0.4952
    6POPC  H14R  747   3.334   2.142   4.666  1.2770  1.1175  0.9356
    6POPC  H14S  748   3.456   2.127   4.546  0.6241  1.6441  0.1124
    6POPC  C215  749   3.271   2.091   4.451  0.3536  0.3863  0.0417
    6POPC  H15R  750   3.298   2.119   4.347  0.2791 -2.4116 -0.7735
    6POPC  H15S  751   3.164   2.117   4.464  1.0151  1.9574  2.7609
    6POPC  C216  752   3.289   1.939   4.463  0.0646  0.3069 -0.5174
    6POPC  H16R  753   3.243   1.929   4.563 -0.7429 -0.9245 -1.0138
    6POPC  H16S  754   3.397   1.914   4.461 -0.2500 -0.9916 -1.3204
    6POPC  C217  755   3.214   1.857   4.359 -0.0313  0.0599 -0.2507
    6POPC  H17R  756   3.260   1.886   4.262 -2.5179  0.4588 -1.3613
    6POPC  H17S  757   3.104   1.876   4.354 -0.2354 -0.7712  0.8996
    6POPC  C218  758   3.215   1.704   4.364  0.6505  0.0764  0.1004
    6POPC  H18R  759   3.165   1.678   4.460 -0.4310 -0.3709 -0.5766
    6POPC  H18S  760   3.320   1.669   4.377  0.0640 -1.7456  0.0695
    6POPC  H18T  761   3.172   1.647   4.279  0.4913  3.2460 -2.0328
    6POPC   C33  762   2.886   2.902   5.390 -0.0826  0.8897 -0.3513
    6POPC   H3X  763   2.980   2.954   5.362  1.7649 -2.0124  0.2709
    6POPC   H3Y  764   2.861   2.932   5.494 -1.3348  0.0747 -0.4082
    6POPC   C34  765   2.769   2.928   5.294 -0.6695  0.1362  0.1514
    6POPC   H4X  766   2.686   2.867   5.335  0.2691 -1.2720 -0.0234
    6POPC   H4Y  767   2.791   2.877   5.198  0.6147  0.1003  0.4560
    6POPC   C35  768   2.720   3.070   5.265  0.0736  0.2859 -0.3915
    6POPC   H5X  769   2.800   3.132   5.220 -0.0078  0.7833  0.1389
    6POPC   H5Y  770   2.680   3.129   5.351  0.9016  0.4976 -0.1492
    6POPC   C36  771   2.610   3.079   5.159 -0.3104 -0.5823 -0.0685
    6POPC   H6X  772   2.539   3.164   5.176 -1.0852 -0.9634 -1.3659
    6POPC   H6Y  773   2.544   2.997   5.196 -0.8647 -0.1195 -0.0200
    6POPC   C37  774   2.654   3.047   5.017  1.3336  0.7588  0.1262
    6POPC   H7X  775   2.581   2.970   4.985 -0.6573  2.2564  0.9382
    6POPC   H7Y  776   2.758   3.009   5.007  1.5734  1.5907 -0.6658
    6POPC   C38  777   2.634   3.165   4.920 -0.5217  0.4442  0.1151
    6POPC   H8X  778   2.717   3.234   4.945  1.1521 -0.6659 -2.2757
    6POPC   H8Y  779   2.530   3.200   4.939 -1.5858 -1.5577 -1.8607
    6POPC   C39  780   2.635   3.133   4.771  0.0185  0.1006  0.1900
    6POPC   H9X  781   2.560   3.052   4.761  0.9563 -1.2407  3.6647
    6POPC   H9Y  782   2.725   3.084   4.730 -0.9839 -0.3042 -1.5852
    6POPC  C310  783   2.602   3.262   4.695  0.5409  0.1706  0.0797
    6POPC  H10X  784   2.691   3.328   4.700  1.5411 -1.1810  0.5353
    6POPC  H10Y  785   2.528   3.323   4.750  2.1161  0.9483  1.3837
    6POPC  C311  786   2.575   3.223   4.549 -0.1852  0.6882  0.0742
    6POPC  H11X  787   2.495   3.146   4.564 -0.1978  0.1408 -2.6291
    6POPC  H11Y  788   2.651   3.197   4.473  0.2767  0.7034  0.5281
    6POPC  C312  789   2.515   3.346   4.482  0.3177  0.6487 -0.4497
    6POPC  H12X  790   2.565   3.445   4.493 -2.8355  1.9335  4.0951
    6POPC  H12Y  791   2.418   3.366   4.532  0.2262 -2.4010  0.6773
    6POPC  C313  792   2.488   3.325   4.333 -0.5857 -0.2404 -0.1705
    6POPC  H13X  793   2.430   3.232   4.321  1.4062 -1.5506  0.1620
    6POPC  H13Y  794   2.586   3.302   4.286  0.2785  0.9517  1.0050
    6POPC  C314  795   2.406   3.441   4.275 -0.1800  0.0961 -0.0748
    6POPC  H14X  796   2.460   3.538   4.284  1.2194 -0.7024  0.2902
    6POPC  H14Y  797   2.309   3.452   4.327 -0.9957  2.2848 -1.9722
    6POPC  C315  798   2.388   3.424   4.124  0.7618  0.6996 -0.2603
    6POPC  H15X  799   2.352   3.324   4.092 -1.0470  0.5613  2.0898
    6POPC  H15Y  800   2.490   3.446   4.085  0.1481  3.6397 -0.3405
    6POPC  C316  801   2.304   3.540   4.072  0.1209  0.3352 -0.0420
    6POPC  H16X  802   2.323   3.555   3.963  1.8674 -3.3046 -0.2980
    6POPC  H16Y  803   2.321   3.637   4.123 -0.6702  1.2011 -1.3889
    6POPC  H16Z  804   2.200   3.500   4.079  0.8686 -1.6661 -0.1570
    7POPC     N  805   1.188   4.295   6.139  0.0091 -0.3913  0.1053
    7POPC   C12  806   1.176   4.317   5.990 -0.0368 -0.5105  0.0907
    7POPC  H12A  810   1.080   4.273   5.965 -0.9466  1.2493  0.4320
    7POPC  H12B  811   1.254   4.261   5.939  0.7520 -0.1632  0.9017
    7POPC   C13  807   1.070   4.365   6.203  0.1401  0.4256 -0.5480
    7POPC  H13A  812   1.074   4.356   6.310 -0.8551  1.3238 -0.4301
    7POPC  H13B  813   1.072   4.470   6.180 -1.4111  0.7836  0.8497
    7POPC  H13C  814   0.975   4.324   6.173 -1.2327  4.3303 -1.9160
    7POPC   C14  808   1.179   4.144   6.148 -0.2036 -0.4035 -0.2599
    7POPC  H14A  815   1.212   4.111   6.246 -0.1144  1.4301  0.3607
    7POPC  H14B  816   1.082   4.107   6.119 -0.0295  0.2641 -1.7281
    7POPC  H14C  817   1.238   4.101   6.068 -1.6559 -1.4031 -0.8078
    7POPC   C15  809   1.318   4.341   6.200 -0.0830 -0.1195  0.0929
    7POPC  H15A  818   1.335   4.304   6.300  0.3830 -0.1521 -0.0004
    7POPC  H15B  819   1.314   4.449   6.204 -0.2366 -0.1105 -0.3114
    7POPC  H15C  820   1.401   4.310   6.140 -0.4866 -0.0231 -0.5192
    7POPC   C11  821   1.175   4.460   5.936  0.2812 -0.4766  0.1745
    7POPC  H11A  822   1.075   4.508   5.944  0.4569 -0.2797  1.3608
    7POPC  H11B  823   1.196   4.450   5.827 -0.9218 -0.4986 -0.0635
    7POPC     P  824   1.331   4.663   5.914 -0.2502 -0.2134 -0.0450
    7POPC   O13  825   1.437   4.731   5.992 -0.2580  0.8750 -0.9784
    7POPC   O14  826   1.216   4.745   5.872  0.1137  0.2446 -0.1519
    7POPC   O12  827   1.280   4.536   5.997  0.0010 -0.1358  0.2304
    7POPC   O11  828   1.401   4.589   5.790  0.4912 -0.2418  0.3832
    7POPC    C1  829   1.539   4.552   5.798  0.5857  0.0762  0.1737
    7POPC    HA  830   1.552   4.448   5.761 -1.5340 -0.1694  0.0230
    7POPC    HB  831   1.574   4.543   5.903 -0.1394 -2.3630  0.2334
    7POPC    C2  832   1.628   4.656   5.727 -0.0285  0.1607 -0.4773
    7POPC    HS  833   1.605   4.756   5.771 -0.2609  0.6721 -1.7165
    7POPC   O21  834   1.588   4.653   5.589 -0.3128 -0.2176 -0.3873
    7POPC   C21  835   1.612   4.769   5.528 -0.5470  0.1692  0.2395
    7POPC   O22  836   1.649   4.872   5.581 -0.2752  0.0874  0.2108
    7POPC   C22  837   1.607   4.741   5.378  0.8742 -0.5845  0.3191
    7POPC   H2R  838   1.505   4.763   5.341  1.5552 -0.6612 -1.6758
    7POPC   H2S  839   1.645   4.646   5.336  1.5514 -0.0318 -0.3446
    7POPC    C3  840   1.779   4.629   5.727 -0.0445  0.0730 -0.2507
    7POPC    HX  841   1.806   4.634   5.835  1.6445 -0.8684 -0.6186
    7POPC    HY  842   1.836   4.710   5.676 -4.1731  1.5185 -2.7889
    7POPC   O31  843   1.795   4.497   5.675 -0.5123 -0.2080  0.3122
    7POPC   C31  844   1.852   4.483   5.555 -0.2860  0.6244  0.3174
    7POPC   O32  845   1.916   4.568   5.496 -0.3400  0.3594 -0.1212
    7POPC   C32  846   1.837   4.339   5.507  0.6163  0.4231  0.6204
    7POPC   H2X  847   1.729   4.327   5.484  0.7807  0.2069 -0.0342
    7POPC   H2Y  848   1.867   4.266   5.586  0.3750 -1.4727 -1.0046
    7POPC   C23  849   1.681   4.853   5.305  0.0903 -0.0038  0.4098
    7POPC   H3R  850   1.647   4.945   5.356  1.8343  1.9141 -1.7374
    7POPC   H3S  851   1.646   4.857   5.199  3.5366  0.5655 -0.7875
    7POPC   C24  852   1.834   4.848   5.303  0.0971  0.2354  0.2564
    7POPC   H4R  853   1.878   4.764   5.244  0.8460  1.8265 -1.4883
    7POPC   H4S  854   1.882   4.858   5.402 -0.1608  2.0068  0.2115
    7POPC   C25  855   1.888   4.971   5.231  0.3080 -0.2796 -0.4750
    7POPC   H5R  856   1.997   4.982   5.249  0.1096  2.0266 -0.4598
    7POPC   H5S  857   1.846   5.064   5.276  2.1623  1.3006 -1.9124
    7POPC   C26  858   1.872   4.972   5.078  0.0317  0.5166 -0.4457
    7POPC   H6R  859   1.907   5.065   5.030 -0.5300 -0.5906 -3.0605
    7POPC   H6S  860   1.764   4.967   5.052  0.0378  0.2068 -0.4182
    7POPC   C27  861   1.944   4.864   4.997  0.0649  0.4232 -0.2916
    7POPC   H7R  862   1.909   4.767   5.040 -0.4869  0.3527 -0.8938
    7POPC   H7S  863   2.055   4.870   5.003  0.1672 -0.2691 -1.5108
    7POPC   C28  864   1.908   4.863   4.849 -0.4131 -0.5717 -0.1746
    7POPC   H8R  865   1.918   4.963   4.802  0.1749 -0.5156  0.0717
    7POPC   H8S  866   1.798   4.849   4.836 -0.5962  2.4276 -2.4700
    7POPC   C29  867   1.989   4.760   4.775  0.0916 -0.3810  0.1064
    7POPC   H91  868   2.038   4.687   4.841 -1.9845 -0.0277  2.1231
    7POPC  C210  869   2.004   4.749   4.643  0.2368  0.2271  0.0742
    7POPC  H101  870   2.064   4.664   4.608  0.4220 -0.7119  2.5749
    7POPC  C211  871   1.926   4.839   4.551 -0.2170 -0.0157  0.2193
    7POPC  H11R  872   1.845   4.895   4.601  0.6154  0.6025  0.8891
    7POPC  H11S  873   1.875   4.788   4.466 -0.9655 -0.4215  0.9105
    7POPC  C212  874   2.026   4.942   4.497 -0.3137 -0.0041  0.0629
    7POPC  H12R  875   2.116   4.883   4.471 -0.5704 -0.0569 -0.7316
    7POPC  H12S  876   2.049   5.010   4.582 -1.4924  0.2097  0.2288
    7POPC  C213  877   1.976   5.021   4.376  0.0037  0.3182  0.1410
    7POPC  H13R  878   1.887   5.082   4.404 -1.3739 -1.0670 -1.1434
    7POPC  H13S  879   1.945   4.949   4.297  0.6134 -0.5682  0.7000
    7POPC  C214  880   2.081   5.120   4.326 -0.0392  0.3732  0.1579
    7POPC  H14R  881   2.178   5.068   4.313 -1.0292 -1.6885  0.8591
    7POPC  H14S  882   2.086   5.207   4.395 -1.4177  0.3783  0.2767
    7POPC  C215  883   2.027   5.168   4.191 -0.4120  0.5523  0.3691
    7POPC  H15R  884   1.918   5.179   4.208 -0.1572 -0.8185  3.2238
    7POPC  H15S  885   2.057   5.088   4.119 -0.1610  0.9232  0.0591
    7POPC  C216  886   2.093   5.300   4.150 -0.4050  0.2908 -0.4814
    7POPC  H16R  887   2.117   5.361   4.240 -1.8429  0.7222 -0.3725
    7POPC  H16S  888   2.014   5.359   4.099 -1.7161 -0.1838  0.9210
    7POPC  C217  889   2.213   5.271   4.060 -0.1433  0.3321 -0.1459
    7POPC  H17R  890   2.277   5.195   4.110 -0.9386 -0.1270  0.1837
    7POPC  H17S  891   2.268   5.365   4.038  0.0903  0.4722  0.9598
    7POPC  C218  892   2.184   5.207   3.925  0.4111  0.6589 -0.4227
    7POPC  H18R  893   2.151   5.101   3.928 -1.1494  1.1674  2.0319
    7POPC  H18S  894   2.271   5.211   3.857  1.2377  0.4599  0.6192
    7POPC  H18T  895   2.096   5.254   3.876  0.3855 -0.7284 -1.7651
    7POPC   C33  896   1.923   4.293   5.389 -0.0844  0.5203  0.0697
    7POPC   H3X  897   1.885   4.190   5.381  1.4576  0.1288 -2.5807
    7POPC   H3Y  898   2.034   4.286   5.399 -0.2837 -1.6246  1.0904
    7POPC   C34  899   1.874   4.355   5.258  0.1734 -0.0223 -0.2847
    7POPC   H4X  900   1.790   4.421   5.288 -1.4830 -2.1403 -0.1930
    7POPC   H4Y  901   1.839   4.281   5.183 -1.6446  1.2092 -0.6961
    7POPC   C35  902   1.985   4.441   5.197 -0.0918 -0.1303 -0.9228
    7POPC   H5X  903   2.019   4.507   5.280 -0.8431  0.6532 -1.2332
    7POPC   H5Y  904   1.937   4.505   5.121 -2.7022 -0.4226  0.4190
    7POPC   C36  905   2.101   4.366   5.132  0.2314 -0.0933 -0.3931
    7POPC   H6X  906   2.147   4.304   5.212 -0.2415  0.0751  0.0116
    7POPC   H6Y  907   2.180   4.440   5.109  0.2384  0.3266  0.9564
    7POPC   C37  908   2.049   4.282   5.015 -0.2201  0.0300 -0.2813
    7POPC   H7X  909   1.957   4.225   5.039  1.0346 -1.9322  0.0360
    7POPC   H7Y  910   2.125   4.206   4.985  1.1804  0.7004  1.4896
    7POPC   C38  911   2.039   4.369   4.890 -0.1449  0.3940 -0.0346
    7POPC   H8X  912   1.988   4.466   4.907 -0.4874  0.7262 -2.7506
    7POPC   H8Y  913   1.967   4.312   4.828 -0.7204  1.1615 -0.0747
    7POPC   C39  914   2.176   4.388   4.823  0.0095 -0.2421  0.0914
    7POPC   H9X  915   2.257   4.413   4.894 -1.7955 -1.8119  2.8121
    7POPC   H9Y  916   2.156   4.478   4.760 -1.0756 -0.5877 -0.0764
    7POPC  C310  917   2.217   4.281   4.721  0.2981 -0.1699  0.1352
    7POPC  H10X  918   2.154   4.296   4.631  2.6019 -0.2030 -1.5401
    7POPC  H10Y  919   2.188   4.182   4.761  0.0558  1.0965  3.2818
    7POPC  C311  920   2.368   4.283   4.694  0.2582 -0.1350 -0.0780
    7POPC  H11X  921   2.420   4.244   4.783 -1.9337 -0.2537  1.1966
    7POPC  H11Y  922   2.396   4.389   4.674  1.2742 -0.3561  0.1547
    7POPC  C312  923   2.414   4.202   4.573  0.2077 -0.1334 -0.0983
    7POPC  H12X  924   2.521   4.228   4.559  0.8713 -2.2849  0.7716
    7POPC  H12Y  925   2.357   4.241   4.486  2.2570 -0.5417 -1.6573
    7POPC  C313  926   2.400   4.049   4.578 -0.1555 -0.0797  0.5443
    7POPC  H13X  927   2.345   4.020   4.670 -2.8969 -1.3756 -1.4400
    7POPC  H13Y  928   2.501   4.003   4.580 -1.5805 -3.2834  0.2320
    7POPC  C314  929   2.310   3.987   4.472  0.2323  0.7059 -0.2568
    7POPC  H14X  930   2.347   4.010   4.370  1.5783  2.1589  0.5374
    7POPC  H14Y  931   2.208   4.031   4.470  0.2794  0.8431  0.2341
    7POPC  C315  932   2.309   3.835   4.489  0.2558  0.6557 -0.7003
    7POPC  H15X  933   2.286   3.816   4.596 -0.7150 -1.1524 -1.2110
    7POPC  H15Y  934   2.410   3.799   4.460  0.2139 -1.9183  2.1573
    7POPC  C316  935   2.212   3.763   4.396  0.4708 -0.4019 -0.1125
    7POPC  H16X  936   2.236   3.791   4.291  2.3481  1.1682  0.7011
    7POPC  H16Y  937   2.109   3.791   4.426  1.4181  1.8334  1.1860
    7POPC  H16Z  938   2.215   3.654   4.419 -0.9248 -0.5356 -0.5040
    8POPC     N  939   4.329   5.010   5.836  0.2677 -0.4662 -0.0549
    8POPC   C12  940   4.334   5.129   5.743 -0.0878 -0.0324  0.4815
    8POPC  H12A  944   4.384   5.092   5.655 -0.0423 -1.5763  1.1407
    8POPC  H12B  945   4.401   5.200   5.790  0.5319 -1.1523  1.3058
    8POPC   C13  941   4.283   5.056   5.972  0.2283  0.4327 -0.3687
    8POPC  H13A  946   4.185   5.099   5.959 -0.6791 -1.2164  0.8775
    8POPC  H13B  947   4.284   4.971   6.038 -0.0389  1.9798  1.6730
    8POPC  H13C  948   4.353   5.123   6.019  0.2008  1.7200 -2.1058
    8POPC   C14  942   4.231   4.911   5.779 -0.1776 -0.1385  0.1417
    8POPC  H14A  949   4.201   4.834   5.848 -1.7457 -1.4931 -1.9784
    8POPC  H14B  950   4.141   4.966   5.756 -0.5430 -1.1143 -0.8624
    8POPC  H14C  951   4.262   4.861   5.689 -0.0069 -0.0892  0.1731
    8POPC   C15  943   4.469   4.959   5.862  0.3236 -0.2876 -0.0060
    8POPC  H15A  952   4.461   4.917   5.961 -2.3394  0.9882  0.3553
    8POPC  H15B  953   4.541   5.039   5.872 -1.3013  0.9614  2.1605
    8POPC  H15C  954   4.495   4.883   5.790  1.3751  1.4857 -1.5395
    8POPC   C11  955   4.210   5.199   5.688  0.0750 -0.0853  0.0471
    8POPC  H11A  956   4.173   5.138   5.603 -1.6710 -0.0063  0.7277
    8POPC  H11B  957   4.234   5.296   5.638  0.4159 -0.1063  0.1736
    8POPC     P  958   4.111   5.354   5.865 -0.1483  0.1252 -0.0574
    8POPC   O13  959   4.249   5.399   5.896 -0.3565  0.2567  0.6858
    8POPC   O14  960   4.021   5.353   5.982 -0.1338 -0.5105 -0.0509
    8POPC   O12  961   4.114   5.211   5.793  0.0989  0.0751  0.0518
    8POPC   O11  962   4.064   5.448   5.744  0.2129  0.3687 -0.0089
    8POPC    C1  963   3.930   5.492   5.726  0.0189 -0.5029 -0.7321
    8POPC    HA  964   3.912   5.542   5.824  1.7502 -1.3002  0.0157
    8POPC    HB  965   3.856   5.411   5.708 -0.5141 -0.3114  0.5263
    8POPC    C2  966   3.918   5.604   5.621  0.2454  0.1717 -0.0470
    8POPC    HS  967   3.814   5.637   5.597  0.2671 -0.5243 -1.1297
    8POPC   O21  968   3.978   5.552   5.502  0.5929  0.4440  0.0080
    8POPC   C21  969   3.928   5.608   5.392  0.0235  0.1381  0.1079
    8POPC   O22  970   3.833   5.683   5.385 -0.3403 -0.2537  0.7475
    8POPC   C22  971   4.012   5.557   5.275  0.3004  0.2867  0.2424
    8POPC   H2R  972   4.007   5.446   5.274  1.4964  0.2161  0.5709
    8POPC   H2S  973   4.120   5.579   5.290  0.6661 -2.9469  3.1603
    8POPC    C3  974   3.974   5.736   5.677 -0.2433  0.0921  0.6435
    8POPC    HX  975   4.066   5.714   5.735  0.2349  0.7442  0.1448
    8POPC    HY  976   3.893   5.788   5.731 -0.1502 -0.2847  1.1538
    8POPC   O31  977   4.022   5.815   5.568  0.3023 -0.5471  0.4102
    8POPC   C31  978   4.073   5.932   5.610  0.1150 -0.1744 -0.3961
    8POPC   O32  979   4.085   5.960   5.727 -0.0296 -0.2442 -0.3632
    8POPC   C32  980   4.106   6.017   5.488 -0.0789  0.0085 -0.3221
    8POPC   H2X  981   4.071   6.122   5.494 -1.6203 -0.4385 -1.1780
    8POPC   H2Y  982   4.054   5.980   5.397 -1.7406  0.2872  0.5010
    8POPC   C23  983   3.973   5.616   5.140  0.7823  0.2709  0.0946
    8POPC   H3R  984   3.863   5.619   5.121  0.2534  0.7712  3.0692
    8POPC   H3S  985   4.013   5.565   5.050 -0.2692  0.6638 -0.6089
    8POPC   C24  986   4.014   5.762   5.119  0.1107  0.4034 -0.3012
    8POPC   H4R  987   4.121   5.761   5.091  0.3104 -1.6366  0.4547
    8POPC   H4S  988   3.990   5.830   5.204 -0.0159  1.0425 -0.8455
    8POPC   C25  989   3.941   5.818   4.997  0.1608 -0.0676 -0.5476
    8POPC   H5R  990   3.831   5.828   5.011  0.3365  1.1555  0.0382
    8POPC   H5S  991   3.949   5.738   4.920 -1.2346 -2.5001  1.7763
    8POPC   C26  992   3.994   5.951   4.943 -0.6052  0.6448  0.4368
    8POPC   H6R  993   4.101   5.943   4.915 -1.4277 -3.1587 -1.9154
    8POPC   H6S  994   3.992   6.042   5.006  0.0109  1.2085 -0.3482
    8POPC   C27  995   3.927   6.003   4.815  0.3881 -0.0037 -0.3552
    8POPC   H7R  996   3.997   6.079   4.777  0.7942 -1.0697 -1.7810
    8POPC   H7S  997   3.824   6.038   4.836  0.5310  1.6522 -2.2645
    8POPC   C28  998   3.914   5.896   4.706 -0.0417 -0.5610  0.2363
    8POPC   H8R  999   3.843   5.820   4.744  0.0295 -0.8703 -0.2569
    8POPC   H8S 1000   4.013   5.852   4.684  0.7771  1.5941 -0.5679
    8POPC   C29 1001   3.848   5.963   4.588  0.1154  0.2228  0.5867
    8POPC   H91 1002   3.747   6.003   4.604  1.3401  2.5457  2.8534
    8POPC  C210 1003   3.902   5.977   4.466  0.0891 -0.5403  0.4856
    8POPC  H101 1004   3.843   6.020   4.385  0.3319  0.0769  0.6368
    8POPC  C211 1005   4.033   5.919   4.421 -0.0734 -0.6076  0.0960
    8POPC  H11R 1006   4.113   5.921   4.498 -0.2480 -1.7214  0.3128
    8POPC  H11S 1007   4.067   5.995   4.347 -0.7136  0.0211  0.4382
    8POPC  C212 1008   4.044   5.781   4.357  0.1426 -0.5749  0.0646
    8POPC  H12R 1009   3.969   5.770   4.276  0.7974  1.3506 -0.8392
    8POPC  H12S 1010   4.027   5.706   4.437 -0.8606 -0.7015 -0.2546
    8POPC  C213 1011   4.182   5.740   4.304  0.1652  0.5492 -0.7684
    8POPC  H13R 1012   4.208   5.802   4.215  1.3379  0.9216 -0.1641
    8POPC  H13S 1013   4.164   5.635   4.272 -0.3832  0.0383  1.1555
    8POPC  C214 1014   4.295   5.758   4.405 -0.1228 -0.2728 -0.2930
    8POPC  H14R 1015   4.312   5.867   4.420  0.3374 -0.3241 -0.4343
    8POPC  H14S 1016   4.386   5.729   4.349  0.8998  3.6171 -0.8424
    8POPC  C215 1017   4.283   5.683   4.537  0.4208 -0.2751 -0.2455
    8POPC  H15R 1018   4.253   5.578   4.513 -1.1654  0.6178 -2.2620
    8POPC  H15S 1019   4.199   5.722   4.598 -0.9905 -2.0224 -1.0330
    8POPC  C216 1020   4.417   5.683   4.611  0.2835 -0.1750  0.0041
    8POPC  H16R 1021   4.497   5.698   4.535  0.4671 -0.4764  0.1345
    8POPC  H16S 1022   4.430   5.585   4.662  2.7447 -1.1099 -2.2815
    8POPC  C217 1023   4.440   5.789   4.719 -0.4513  0.1567 -0.1682
    8POPC  H17R 1024   4.404   5.886   4.678 -0.6832 -0.7016 -2.0504
    8POPC  H17S 1025   4.548   5.805   4.738 -0.3635  1.3489 -1.5584
    8POPC  C218 1026   4.352   5.757   4.840  0.2637  0.1617  0.3569
    8POPC  H18R 1027   4.373   5.825   4.925 -0.3808  1.3982 -0.4564
    8POPC  H18S 1028   4.343   5.649   4.865  0.7500  0.3242  1.2185
    8POPC  H18T 1029   4.247   5.772   4.806  0.3924  1.5910  0.5677
    8POPC   C33 1030   4.255   5.994   5.460 -0.2686 -1.1812 -0.4006
    8POPC   H3X 1031   4.281   5.888   5.442  0.0442 -1.2296  0.3085
    8POPC   H3Y 1032   4.325   6.027   5.540 -0.7339  0.6919 -0.7330
    8POPC   C34 1033   4.301   6.064   5.332 -0.0552 -0.1748  0.2152
    8POPC   H4X 1034   4.285   6.173   5.340 -0.8834 -0.3200  0.5707
    8POPC   H4Y 1035   4.242   6.033   5.243  0.5530  0.6247 -0.4708
    8POPC   C35 1036   4.450   6.042   5.305 -0.0097  0.2996  0.0709
    8POPC   H5X 1037   4.472   5.934   5.320  1.0411  0.2306 -1.9201
    8POPC   H5Y 1038   4.516   6.087   5.382 -0.6027 -0.2596  0.9204
    8POPC   C36 1039   4.504   6.073   5.166 -0.3684 -0.0361 -0.1434
    8POPC   H6X 1040   4.496   6.182   5.145 -0.4358 -0.5504 -3.0314
    8POPC   H6Y 1041   4.446   6.020   5.087  1.8604 -2.3188 -0.3176
    8POPC   C37 1042   4.651   6.032   5.162 -0.0795  0.9403  0.4446
    8POPC   H7X 1043   4.666   5.934   5.211  1.1837  0.8662 -0.0610
    8POPC   H7Y 1044   4.712   6.106   5.218 -0.5485  1.0537  0.8111
    8POPC   C38 1045   4.722   6.046   5.027 -0.3599 -0.0251  0.1995
    8POPC   H8X 1046   4.706   6.149   4.990 -1.4303 -0.4952 -0.7036
    8POPC   H8Y 1047   4.673   5.975   4.956  0.5792  1.0527 -1.5618
    8POPC   C39 1048   4.873   6.022   5.019 -0.3271  0.1511  0.2945
    8POPC   H9X 1049   4.908   5.936   5.079  0.0183 -0.2296 -0.4374
    8POPC   H9Y 1050   4.927   6.107   5.066  1.4317 -0.5062 -0.5273
    8POPC  C310 1051   4.933   6.015   4.878  0.1136  0.0374  0.4895
    8POPC  H10X 1052   4.906   5.920   4.827 -1.5975 -0.1652  1.7085
    8POPC  H10Y 1053   5.044   6.008   4.886  0.2207  1.7365  0.6156
    8POPC  C311 1054   4.905   6.138   4.792  0.5836 -0.1247  0.1050
    8POPC  H11X 1055   4.946   6.227   4.844  2.3097 -1.3745  0.9420
    8POPC  H11Y 1056   4.799   6.171   4.792 -0.2178 -2.6153  1.1639
    8POPC  C312 1057   4.974   6.138   4.655 -0.1076  0.3220 -0.2460
    8POPC  H12X 1058   4.928   6.068   4.582 -0.0899  0.9722 -0.8855
    8POPC  H12Y 1059   5.079   6.103   4.668 -0.8986 -2.5865 -1.2631
    8POPC  C313 1060   4.979   6.277   4.591 -0.4415  0.0423 -0.8818
    8POPC  H13X 1061   5.017   6.348   4.667 -3.0488 -0.2245  0.7438
    8POPC  H13Y 1062   4.875   6.309   4.567 -1.0811 -0.7107  0.8054
    8POPC  C314 1063   5.069   6.297   4.469  0.0092  0.2982 -0.5090
    8POPC  H14X 1064   5.175   6.271   4.491 -0.9528 -2.2111  1.4151
    8POPC  H14Y 1065   5.073   6.406   4.447  0.9225  0.5440  0.8185
    8POPC  C315 1066   5.031   6.233   4.335  0.0041 -0.2752 -0.2366
    8POPC  H15X 1067   5.048   6.124   4.334  0.7525 -0.1672  0.4500
    8POPC  H15Y 1068   5.093   6.291   4.263 -0.3273 -1.5020 -1.5412
    8POPC  C316 1069   4.888   6.258   4.286  0.2883  0.8714 -0.5003
    8POPC  H16X 1070   4.877   6.265   4.175 -3.1695 -0.4109 -0.2946
    8POPC  H16Y 1071   4.857   6.351   4.338  1.0490 -0.3026  2.1049
    8POPC  H16Z 1072   4.814   6.187   4.326 -0.6601  0.9609 -2.0458
    9POPC     N 1073   1.405   2.058   6.802 -0.1112  0.0972  0.0326
    9POPC   C12 1074   1.458   1.959   6.700 -0.5818  0.1507 -0.2681
    9POPC  H12A 1078   1.398   1.870   6.703  2.3144 -1.8674  0.0182
    9POPC  H12B 1079   1.551   1.921   6.740 -0.4416  0.2274 -0.5133
    9POPC   C13 1075   1.510   2.158   6.844 -0.2434  0.0784  0.4021
    9POPC  H13A 1080   1.547   2.205   6.755 -0.5066 -1.1749 -0.3864
    9POPC  H13B 1081   1.460   2.225   6.912  0.0828  0.7310  0.0046
    9POPC  H13C 1082   1.589   2.103   6.894 -0.9784 -2.1902 -0.8627
    9POPC   C14 1076   1.282   2.135   6.761 -0.0072 -0.1739 -0.7996
    9POPC  H14A 1083   1.304   2.190   6.671 -3.4681  0.8455 -1.0995
    9POPC  H14B 1084   1.209   2.060   6.732  1.4173 -2.0355  0.3047
    9POPC  H14C 1085   1.243   2.187   6.847  1.0518 -1.4847  0.4905
    9POPC   C15 1077   1.363   1.973   6.919  0.5950  0.0969  0.2904
    9POPC  H15A 1086   1.439   1.897   6.918  0.9472  0.4304  1.3693
    9POPC  H15B 1087   1.276   1.912   6.902  0.1464  0.7341  0.2587
    9POPC  H15C 1088   1.362   2.021   7.016  0.7627 -0.3917  0.5305
    9POPC   C11 1089   1.491   2.005   6.558 -0.3397  0.2056 -0.1958
    9POPC  H11A 1090   1.388   2.023   6.518 -0.9794 -0.5611  1.0759
    9POPC  H11B 1091   1.542   1.920   6.507 -1.0918  0.8109 -2.0061
    9POPC     P 1092   1.512   2.237   6.454  0.2317  0.0404 -0.5346
    9POPC   O13 1093   1.599   2.356   6.444  0.2278  0.0522 -0.4348
    9POPC   O14 1094   1.378   2.269   6.508  0.0965 -0.5255 -0.5265
    9POPC   O12 1095   1.572   2.123   6.549  0.3166 -0.2978 -0.9940
    9POPC   O11 1096   1.498   2.161   6.314 -0.0094 -0.0420 -0.4666
    9POPC    C1 1097   1.599   2.175   6.214  0.3471 -0.2959 -0.1464
    9POPC    HA 1098   1.615   2.075   6.169 -0.6192  0.0286 -1.2586
    9POPC    HB 1099   1.699   2.208   6.250  1.4583 -3.1905 -0.4384
    9POPC    C2 1100   1.565   2.279   6.106 -0.4402 -0.0456  0.3328
    9POPC    HS 1101   1.524   2.373   6.149 -0.6967  0.3537 -0.7494
    9POPC   O21 1102   1.471   2.200   6.033 -0.0013  0.0205 -0.3127
    9POPC   C21 1103   1.377   2.268   5.968 -0.1476  0.1355  0.0179
    9POPC   O22 1104   1.361   2.389   5.980 -0.3795  0.2015 -0.8767
    9POPC   C22 1105   1.301   2.182   5.869  0.6697 -0.3740 -0.1781
    9POPC   H2R 1106   1.227   2.127   5.931 -1.8310 -0.2724 -2.9033
    9POPC   H2S 1107   1.361   2.108   5.813  0.2849  0.3653 -1.6016
    9POPC    C3 1108   1.686   2.314   6.017 -0.5480 -0.0306  0.1906
    9POPC    HX 1109   1.735   2.215   6.001 -0.2750  0.3205 -1.1885
    9POPC    HY 1110   1.748   2.372   6.089 -2.2369  0.6652  1.1082
    9POPC   O31 1111   1.648   2.374   5.893  0.8516 -0.3183 -0.3831
    9POPC   C31 1112   1.667   2.504   5.870 -0.0411 -0.1428 -0.1547
    9POPC   O32 1113   1.734   2.576   5.942 -0.5261 -0.1301  0.2859
    9POPC   C32 1114   1.594   2.541   5.742  0.0195  0.5110  0.0002
    9POPC   H2X 1115   1.567   2.648   5.759 -2.4594 -0.2691  1.1530
    9POPC   H2Y 1116   1.501   2.481   5.730  0.1871 -0.0097  1.2299
    9POPC   C23 1117   1.231   2.274   5.768  0.1692 -0.5026  0.0508
    9POPC   H3R 1118   1.315   2.317   5.710 -1.7834  2.8021 -0.4440
    9POPC   H3S 1119   1.191   2.365   5.818  2.2764  1.3922 -1.6289
    9POPC   C24 1120   1.126   2.203   5.681  0.0575  0.1482 -0.3528
    9POPC   H4R 1121   1.163   2.126   5.610  0.5539 -0.8770  0.9734
    9POPC   H4S 1122   1.085   2.278   5.611 -1.6207 -0.7677 -0.3790
    9POPC   C25 1123   1.007   2.126   5.739  0.3152 -0.3170 -0.4355
    9POPC   H5R 1124   0.973   2.194   5.819  1.2111 -0.2183 -0.1291
    9POPC   H5S 1125   1.060   2.039   5.783  0.0183  0.1655  0.9103
    9POPC   C26 1126   0.902   2.099   5.631  0.2006 -0.1025 -0.3783
    9POPC   H6R 1127   0.951   2.031   5.558  0.7499  0.1376 -0.2377
    9POPC   H6S 1128   0.879   2.189   5.571  0.6427 -1.4803 -2.6493
    9POPC   C27 1129   0.777   2.032   5.689  0.3000 -0.1643 -0.2334
    9POPC   H7R 1130   0.803   1.943   5.750 -1.4722 -0.8706 -0.4834
    9POPC   H7S 1131   0.704   1.998   5.612 -0.5645  1.2534 -0.0659
    9POPC   C28 1132   0.705   2.128   5.784  0.5497 -0.2522  0.0443
    9POPC   H8R 1133   0.686   2.228   5.740  2.5574  0.5863  0.9939
    9POPC   H8S 1134   0.764   2.153   5.875  0.7876 -0.2292 -0.1164
    9POPC   C29 1135   0.573   2.068   5.822  0.3280  0.3722  0.2524
    9POPC   H91 1136   0.580   1.994   5.903 -0.1393  0.5454  0.4575
    9POPC  C210 1137   0.459   2.082   5.753  0.3394  0.7347  0.3018
    9POPC  H101 1138   0.359   2.052   5.789  0.8450 -0.2290  0.9380
    9POPC  C211 1139   0.449   2.157   5.624  0.4669 -0.6999 -0.5604
    9POPC  H11R 1140   0.547   2.193   5.586 -0.1156 -1.0176 -2.4480
    9POPC  H11S 1141   0.390   2.249   5.643  0.3736 -0.8198 -0.2756
    9POPC  C212 1142   0.373   2.075   5.520  0.3157 -0.7148 -0.4377
    9POPC  H12R 1143   0.279   2.037   5.565 -0.8823 -1.3302 -3.3202
    9POPC  H12S 1144   0.431   1.982   5.501  0.9677 -0.7462  1.5997
    9POPC  C213 1145   0.353   2.136   5.381 -0.2499 -0.2069 -0.1338
    9POPC  H13R 1146   0.450   2.135   5.326  0.4736  0.3309  1.1147
    9POPC  H13S 1147   0.310   2.235   5.407  2.2157  0.6255  0.9240
    9POPC  C214 1148   0.251   2.056   5.300  0.2841 -1.0124 -0.0170
    9POPC  H14R 1149   0.191   2.002   5.376  0.7321 -0.1739  0.9426
    9POPC  H14S 1150   0.302   1.978   5.239  3.6289 -0.1029  1.4991
    9POPC  C215 1151   0.152   2.145   5.223  0.7092 -0.4680  0.0615
    9POPC  H15R 1152   0.138   2.233   5.289  0.7140  0.2916 -0.9396
    9POPC  H15S 1153   0.048   2.106   5.226  0.6723 -0.4193 -0.4902
    9POPC  C216 1154   0.203   2.171   5.081  0.6167 -0.0097  0.1107
    9POPC  H16R 1155   0.236   2.078   5.029  2.3850  0.3596  0.5207
    9POPC  H16S 1156   0.292   2.234   5.101 -0.3387  1.4477 -0.1947
    9POPC  C217 1157   0.114   2.255   4.990  0.1615 -0.4674  0.1291
    9POPC  H17R 1158   0.093   2.351   5.043  1.2211  1.1389 -2.2605
    9POPC  H17S 1159   0.009   2.218   4.982 -0.0254  0.4894 -2.0593
    9POPC  C218 1160   0.179   2.283   4.855 -0.6550  0.4964 -0.0774
    9POPC  H18R 1161   0.289   2.289   4.874 -0.6071 -1.2887  0.3173
    9POPC  H18S 1162   0.138   2.364   4.791 -1.3902 -2.1421 -3.0540
    9POPC  H18T 1163   0.172   2.192   4.792  1.9700 -0.2197  0.5753
    9POPC   C33 1164   1.692   2.539   5.625 -0.1730 -0.5840 -0.1442
    9POPC   H3X 1165   1.659   2.465   5.549  1.0372  0.3771 -1.6283
    9POPC   H3Y 1166   1.798   2.524   5.656  0.0107  1.5445  0.3179
    9POPC   C34 1167   1.691   2.677   5.559  0.1690 -0.2774  0.4902
    9POPC   H4X 1168   1.697   2.754   5.639 -2.8570 -0.7920  1.2735
    9POPC   H4Y 1169   1.586   2.695   5.527  0.2083  1.1275  1.1019
    9POPC   C35 1170   1.806   2.698   5.460  0.2049 -0.1684  0.5548
    9POPC   H5X 1171   1.795   2.627   5.376  0.8487  0.7827 -0.3333
    9POPC   H5Y 1172   1.907   2.688   5.504  0.2222  0.2617  0.6118
    9POPC   C36 1173   1.789   2.834   5.392  0.3788 -0.3914  0.0699
    9POPC   H6X 1174   1.779   2.904   5.478 -1.9947 -0.1290 -0.4064
    9POPC   H6Y 1175   1.691   2.837   5.341 -0.4253  0.1675  1.6475
    9POPC   C37 1176   1.901   2.878   5.297  0.2137 -0.1642 -0.0191
    9POPC   H7X 1177   1.991   2.911   5.355 -0.3127  0.9665  0.1711
    9POPC   H7Y 1178   1.867   2.975   5.255 -0.1276 -0.9493 -1.5885
    9POPC   C38 1179   1.933   2.774   5.189  0.1044  0.2208 -0.4229
    9POPC   H8X 1180   1.831   2.751   5.151 -1.3175 -0.7989  3.6802
    9POPC   H8Y 1181   1.972   2.680   5.232 -2.0825 -0.6453 -0.2447
    9POPC   C39 1182   2.012   2.832   5.072  0.6766  0.5290  0.1145
    9POPC   H9X 1183   2.037   2.744   5.008 -2.2952 -0.7345  0.6117
    9POPC   H9Y 1184   2.098   2.886   5.118  0.9767 -0.3271  0.5777
    9POPC  C310 1185   1.944   2.928   4.975 -0.0037 -0.9464 -0.8912
    9POPC  H10X 1186   1.916   3.019   5.032 -0.7237 -1.2975 -0.6904
    9POPC  H10Y 1187   1.852   2.876   4.942 -0.8944 -0.3524  0.6163
    9POPC  C311 1188   2.052   2.962   4.872  0.1896  0.4580 -0.2354
    9POPC  H11X 1189   2.078   2.863   4.830 -0.1077  0.0843  0.4533
    9POPC  H11Y 1190   2.139   3.005   4.928  0.2077 -0.7746  0.6912
    9POPC  C312 1191   1.990   3.059   4.771 -0.2769 -0.1275 -0.5117
    9POPC  H12X 1192   1.967   3.155   4.821  1.1263  0.3058 -0.6767
    9POPC  H12Y 1193   1.897   3.015   4.729 -0.8938  0.5645  0.1089
    9POPC  C313 1194   2.093   3.096   4.664  0.3048 -0.0483  0.0716
    9POPC  H13X 1195   2.120   2.998   4.619 -2.2330 -1.1429  0.8628
    9POPC  H13Y 1196   2.189   3.129   4.709  1.2161  0.6122 -2.2586
    9POPC  C314 1197   2.049   3.189   4.551  0.2536 -0.8287 -0.5613
    9POPC  H14X 1198   2.024   3.292   4.584  0.1504 -1.1838  0.4721
    9POPC  H14Y 1199   1.957   3.138   4.518 -0.2777 -0.4223  0.2686
    9POPC  C315 1200   2.152   3.203   4.438  0.4809  0.2904 -0.2268
    9POPC  H15X 1201   2.182   3.101   4.404  1.7048  0.5425  0.0543
    9POPC  H15Y 1202   2.241   3.256   4.478  0.3121 -1.5413  2.8003
    9POPC  C316 1203   2.100   3.271   4.312  0.6178  0.5991 -0.1178
    9POPC  H16X 1204   2.101   3.378   4.339 -3.3827  1.0144 -1.2932
    9POPC  H16Y 1205   2.000   3.228   4.289  0.5464  0.3659  0.6215
    9POPC  H16Z 1206   2.176   3.256   4.232  0.6046 -0.8776  0.1261
   10POPC     N 1207   5.477   2.727   6.571  0.0325 -0.0646 -0.0453
   10POPC   C12 1208   5.575   2.836   6.534  0.7785 -0.9700 -0.7664
   10POPC  H12A 1212   5.675   2.822   6.572 -0.4036 -1.0881  2.4457
   10POPC  H12B 1213   5.542   2.928   6.580  0.1842 -0.1176 -2.8195
   10POPC   C13 1209   5.344   2.724   6.501 -0.0946  0.1489  0.1838
   10POPC  H13A 1214   5.291   2.813   6.528 -1.0817 -1.5165  4.0841
   10POPC  H13B 1215   5.351   2.720   6.393  2.3466  1.0184  0.2764
   10POPC  H13C 1216   5.296   2.642   6.553  1.5858  0.4646  2.2719
   10POPC   C14 1210   5.549   2.595   6.552 -0.6206 -0.3884 -0.2707
   10POPC  H14A 1217   5.498   2.510   6.594  0.8499  0.4718  3.3679
   10POPC  H14B 1218   5.560   2.585   6.445 -0.6409 -0.4885 -0.2636
   10POPC  H14C 1219   5.646   2.601   6.600 -0.8667  1.8023  0.0187
   10POPC   C15 1211   5.449   2.745   6.718 -0.0655 -0.1367 -0.0560
   10POPC  H15A 1220   5.415   2.650   6.756  1.1420 -0.7730 -0.5349
   10POPC  H15B 1221   5.374   2.822   6.731  0.4552  0.1131  1.6308
   10POPC  H15C 1222   5.541   2.769   6.770 -0.3841  0.0955  0.4045
   10POPC   C11 1223   5.570   2.881   6.388  0.2297  0.5321 -0.2884
   10POPC  H11A 1224   5.654   2.952   6.373  2.0930 -1.6331 -0.3412
   10POPC  H11B 1225   5.479   2.944   6.375  0.6254  1.5036  1.4903
   10POPC     P 1226   5.734   2.745   6.242 -0.1948  0.2787 -0.0883
   10POPC   O13 1227   5.731   2.632   6.146  0.1867 -0.1105  0.3555
   10POPC   O14 1228   5.827   2.722   6.355  0.1577 -0.0920 -0.4491
   10POPC   O12 1229   5.588   2.768   6.303 -0.1456  0.2165  0.0529
   10POPC   O11 1230   5.773   2.880   6.165 -0.0645  0.1665 -0.2224
   10POPC    C1 1231   5.677   2.958   6.093 -0.4666 -0.1977 -0.0822
   10POPC    HA 1232   5.726   3.056   6.075 -0.2008 -0.4237 -0.6053
   10POPC    HB 1233   5.580   2.969   6.146 -0.6525 -0.6959 -0.3175
   10POPC    C2 1234   5.660   2.909   5.948  0.2698  0.3437 -0.3516
   10POPC    HS 1235   5.615   2.808   5.953  1.7787 -0.3237  0.3022
   10POPC   O21 1236   5.793   2.903   5.896  0.5241 -0.5254  0.3818
   10POPC   C21 1237   5.810   2.803   5.810  0.3614 -0.0896 -0.1585
   10POPC   O22 1238   5.722   2.729   5.769  0.2760 -0.3931  0.5572
   10POPC   C22 1239   5.957   2.787   5.774  0.3774  0.2329 -0.2318
   10POPC   H2R 1240   6.002   2.695   5.816 -3.1779 -0.7356  1.6824
   10POPC   H2S 1241   6.023   2.867   5.815  0.1650 -0.9869  2.5870
   10POPC    C3 1242   5.575   3.012   5.872 -0.9004 -0.0397  0.4262
   10POPC    HX 1243   5.631   3.106   5.893 -0.7927  0.1860 -0.8708
   10POPC    HY 1244   5.475   3.024   5.920 -0.4351 -0.0170  1.4155
   10POPC   O31 1245   5.568   2.993   5.731  0.5408 -0.1783  0.3637
   10POPC   C31 1246   5.464   2.914   5.702 -0.0992  0.6621  0.3632
   10POPC   O32 1247   5.393   2.851   5.780  0.1058  0.1739  0.1552
   10POPC   C32 1248   5.432   2.929   5.554  0.2274  0.0006  0.2266
   10POPC   H2X 1249   5.501   3.001   5.504 -0.5556  0.6181  0.0310
   10POPC   H2Y 1250   5.330   2.972   5.556  0.1365 -0.2618  3.1382
   10POPC   C23 1251   5.979   2.767   5.624 -0.6199 -0.4131 -0.2948
   10POPC   H3R 1252   5.960   2.861   5.567 -0.4371 -1.4122 -2.0359
   10POPC   H3S 1253   5.903   2.697   5.582 -1.3450 -0.2536  0.7205
   10POPC   C24 1254   6.112   2.700   5.588 -0.0949  0.4572  0.0162
   10POPC   H4R 1255   6.119   2.594   5.618 -0.5816  0.4303  0.0379
   10POPC   H4S 1256   6.194   2.740   5.651  0.5636 -0.4659 -0.2511
   10POPC   C25 1257   6.155   2.731   5.444  0.4615  0.4143  0.1725
   10POPC   H5R 1258   6.153   2.839   5.422 -3.8713 -0.0545 -2.1825
   10POPC   H5S 1259   6.070   2.690   5.385  0.7040  0.9285 -0.5311
   10POPC   C26 1260   6.291   2.671   5.407  0.1200  0.1173 -0.6054
   10POPC   H6R 1261   6.283   2.560   5.408 -2.2028  0.2735  1.0116
   10POPC   H6S 1262   6.362   2.689   5.490 -0.6062  0.8171 -0.1343
   10POPC   C27 1263   6.331   2.724   5.269 -0.2346 -0.3699 -0.8987
   10POPC   H7R 1264   6.239   2.738   5.208 -2.0574  0.6454  1.9519
   10POPC   H7S 1265   6.405   2.664   5.212  1.4117  0.3449  0.4541
   10POPC   C28 1266   6.408   2.854   5.294 -0.4103 -0.3465 -0.4750
   10POPC   H8R 1267   6.500   2.818   5.344 -1.4117  0.9290  2.3886
   10POPC   H8S 1268   6.344   2.902   5.371  1.5152  1.0127  0.3219
   10POPC   C29 1269   6.447   2.938   5.176 -0.5444  0.0005 -0.2703
   10POPC   H91 1270   6.529   2.902   5.113  1.1695  1.3180  1.1374
   10POPC  C210 1271   6.368   3.036   5.130 -0.2274  0.3873 -0.0002
   10POPC  H101 1272   6.404   3.092   5.042 -0.7567 -0.5642 -0.8277
   10POPC  C211 1273   6.247   3.090   5.199  0.0227  0.6133  0.2669
   10POPC  H11R 1274   6.256   3.103   5.308 -2.3954 -1.0761  0.7270
   10POPC  H11S 1275   6.170   3.011   5.185 -0.2099  1.2397 -2.2842
   10POPC  C212 1276   6.183   3.213   5.134 -0.3684  0.0038 -0.5102
   10POPC  H12R 1277   6.073   3.217   5.149 -0.4854  3.2054 -1.8491
   10POPC  H12S 1278   6.215   3.201   5.028 -1.3087 -1.6421 -0.6233
   10POPC  C213 1279   6.240   3.350   5.172 -0.3395 -0.3497  0.7351
   10POPC  H13R 1280   6.351   3.348   5.181 -0.4078 -1.6952  1.3891
   10POPC  H13S 1281   6.206   3.368   5.276 -0.7926 -2.5100  0.9808
   10POPC  C214 1282   6.185   3.460   5.081  0.7347 -0.3159  0.1097
   10POPC  H14R 1283   6.079   3.436   5.055  0.7732 -0.6932  0.2889
   10POPC  H14S 1284   6.228   3.469   4.979 -0.5301 -1.0910 -0.5084
   10POPC  C215 1285   6.198   3.596   5.150 -0.2354  0.1428 -0.5995
   10POPC  H15R 1286   6.299   3.594   5.195  0.3984 -0.2211 -1.9970
   10POPC  H15S 1287   6.129   3.613   5.235  1.0067 -1.9349  0.8705
   10POPC  C216 1288   6.178   3.714   5.055  0.0367  0.1982 -0.5860
   10POPC  H16R 1289   6.071   3.728   5.030  0.4434  2.3577 -1.1986
   10POPC  H16S 1290   6.233   3.694   4.961  0.4502 -1.6100  0.0163
   10POPC  C217 1291   6.215   3.848   5.120 -0.3840 -0.0919  0.2641
   10POPC  H17R 1292   6.309   3.843   5.179  1.6087  0.0638 -2.7923
   10POPC  H17S 1293   6.127   3.877   5.181 -2.1299 -0.9763 -1.7716
   10POPC  C218 1294   6.250   3.961   5.023 -0.9134 -0.2390 -0.0992
   10POPC  H18R 1295   6.289   4.046   5.082 -0.0638  0.7453 -2.0191
   10POPC  H18S 1296   6.160   4.002   4.971  0.7701  1.9557 -1.3870
   10POPC  H18T 1297   6.337   3.945   4.956 -1.3326  0.4378 -0.8243
   10POPC   C33 1298   5.439   2.800   5.473 -0.3391  0.1727 -0.0917
   10POPC   H3X 1299   5.385   2.727   5.537  0.9935 -0.9199 -0.2024
   10POPC   H3Y 1300   5.539   2.757   5.450  0.1306  0.8735  0.6464
   10POPC   C34 1301   5.371   2.822   5.337  0.0170 -0.2284 -0.3366
   10POPC   H4X 1302   5.438   2.890   5.280  2.5730 -3.2695 -1.1386
   10POPC   H4Y 1303   5.274   2.870   5.360  1.3872  2.7406 -0.5095
   10POPC   C35 1304   5.357   2.692   5.257 -0.1029 -0.4349  0.0167
   10POPC   H5X 1305   5.300   2.616   5.314 -1.6814 -0.3351 -1.3779
   10POPC   H5Y 1306   5.452   2.647   5.222 -0.7258 -1.0810 -0.8728
   10POPC   C36 1307   5.290   2.715   5.121  0.4967  0.3903 -0.1463
   10POPC   H6X 1308   5.340   2.800   5.070  1.8019 -1.7205 -2.4281
   10POPC   H6Y 1309   5.187   2.752   5.140  0.3884  0.1941 -0.3553
   10POPC   C37 1310   5.293   2.595   5.027 -0.0558  0.1022  0.1962
   10POPC   H7X 1311   5.241   2.512   5.079 -2.5252 -0.7675 -3.5249
   10POPC   H7Y 1312   5.396   2.559   5.004 -0.0483  0.5336 -0.4770
   10POPC   C38 1313   5.208   2.609   4.901  0.4825  0.4401 -0.1321
   10POPC   H8X 1314   5.271   2.671   4.834  1.0667 -0.5160 -0.4734
   10POPC   H8Y 1315   5.116   2.662   4.936  0.9721 -0.1761  2.1505
   10POPC   C39 1316   5.160   2.482   4.830  0.2688  0.2754  0.3099
   10POPC   H9X 1317   5.072   2.444   4.887 -1.2965  1.0707 -1.4915
   10POPC   H9Y 1318   5.247   2.415   4.842  1.2771  1.6020  0.5100
   10POPC  C310 1319   5.123   2.477   4.682 -0.0847 -0.3107  0.4158
   10POPC  H10X 1320   5.102   2.374   4.647  1.0307 -0.2094 -0.5902
   10POPC  H10Y 1321   5.202   2.516   4.614 -3.3431  1.9065 -2.2706
   10POPC  C311 1322   4.986   2.537   4.651 -0.0073 -0.3411  0.0124
   10POPC  H11X 1323   4.992   2.639   4.696  2.2801 -0.8569  0.9555
   10POPC  H11Y 1324   4.904   2.476   4.694 -1.2928  0.9150 -0.5988
   10POPC  C312 1325   4.960   2.551   4.501  0.2666 -0.2844 -0.0298
   10POPC  H12X 1326   4.866   2.602   4.471 -0.1837 -1.3736 -0.5103
   10POPC  H12Y 1327   4.944   2.455   4.448 -0.5396 -0.4316  0.4767
   10POPC  C313 1328   5.068   2.610   4.410  0.3842  0.0893  0.3521
   10POPC  H13X 1329   5.029   2.618   4.307 -1.1099  1.3113  1.0001
   10POPC  H13Y 1330   5.160   2.548   4.402 -0.7154 -1.3969 -1.1071
   10POPC  C314 1331   5.087   2.755   4.454 -0.7454  0.4704 -0.4049
   10POPC  H14X 1332   5.127   2.762   4.557  2.0302  1.0933 -1.4835
   10POPC  H14Y 1333   4.984   2.797   4.458 -0.7671  0.3722  0.0213
   10POPC  C315 1334   5.167   2.844   4.358 -0.0864  0.1624 -0.1426
   10POPC  H15X 1335   5.108   2.865   4.267 -0.3095  0.8797  0.1570
   10POPC  H15Y 1336   5.263   2.794   4.333 -0.3401 -0.8224  0.7813
   10POPC  C316 1337   5.191   2.982   4.419 -0.3510  0.2054 -0.1336
   10POPC  H16X 1338   5.095   3.023   4.457  0.2045  1.1507  0.2738
   10POPC  H16Y 1339   5.232   3.055   4.346  1.0092 -2.0014 -1.6431
   10POPC  H16Z 1340   5.260   2.983   4.506  0.1952  2.4948 -0.5424
   11POPC     N 1341   3.839   2.622   5.799  0.4875  0.0606 -0.5063
   11POPC   C12 1342   3.976   2.643   5.859  0.1093 -0.2768  0.4937
   11POPC  H12A 1346   3.972   2.730   5.923 -1.7127  0.8812 -1.1248
   11POPC  H12B 1347   4.039   2.670   5.775 -1.1036  2.0352  0.3001
   11POPC   C13 1343   3.821   2.490   5.729  0.1336 -0.2455  0.1582
   11POPC  H13A 1348   3.897   2.468   5.656  2.6404  0.1953  2.5084
   11POPC  H13B 1349   3.835   2.412   5.803  2.0266  0.0652  0.1553
   11POPC  H13C 1350   3.724   2.492   5.682 -0.0085  0.5450  0.4828
   11POPC   C14 1344   3.738   2.629   5.912 -0.0560 -0.7716 -0.9431
   11POPC  H14A 1351   3.753   2.711   5.980  2.6807 -0.0287 -2.3522
   11POPC  H14B 1352   3.642   2.626   5.863 -0.3075  0.8994 -0.5832
   11POPC  H14C 1353   3.740   2.539   5.972 -1.2329  1.2018  2.1633
   11POPC   C15 1345   3.798   2.735   5.708  0.5695 -0.0731 -0.7086
   11POPC  H15A 1354   3.690   2.735   5.697  0.3417 -1.1166  1.2902
   11POPC  H15B 1355   3.840   2.724   5.609 -1.8232 -2.4860 -1.5282
   11POPC  H15C 1356   3.815   2.828   5.759 -0.6851  0.2791 -0.9169
   11POPC   C11 1357   4.054   2.540   5.941  0.9176 -0.2330 -0.2056
   11POPC  H11A 1358   4.008   2.536   6.042  0.7127  0.3298 -0.2724
   11POPC  H11B 1359   4.160   2.574   5.946  0.5890  0.8783 -0.6340
   11POPC     P 1360   4.144   2.299   5.945  0.0511 -0.0093 -0.0110
   11POPC   O13 1361   4.055   2.187   5.983 -0.1191  0.0256 -0.3145
   11POPC   O14 1362   4.228   2.356   6.053  0.1526  0.2700 -0.2359
   11POPC   O12 1363   4.057   2.413   5.875  0.1634 -0.1564 -0.3918
   11POPC   O11 1364   4.245   2.241   5.836  0.5428  0.2740  0.2917
   11POPC    C1 1365   4.309   2.324   5.738  0.0838 -0.1845 -0.3926
   11POPC    HA 1366   4.399   2.269   5.704 -0.0430  0.4950 -1.8508
   11POPC    HB 1367   4.331   2.429   5.764  0.6882 -0.3566 -0.2232
   11POPC    C2 1368   4.209   2.340   5.622 -0.0405  0.2171 -0.2306
   11POPC    HS 1369   4.108   2.365   5.661 -0.4742 -0.0194 -1.1752
   11POPC   O21 1370   4.207   2.219   5.545 -0.0052 -0.2266  0.4590
   11POPC   C21 1371   4.087   2.174   5.509  0.0411  0.0586 -0.0662
   11POPC   O22 1372   3.982   2.232   5.533  0.2727  0.2513  0.4845
   11POPC   C22 1373   4.090   2.044   5.429  0.2133 -0.2756  0.4762
   11POPC   H2R 1374   4.131   1.962   5.491  2.0459  0.4089  0.2129
   11POPC   H2S 1375   4.161   2.066   5.346 -1.5255  1.4101 -0.6252
   11POPC    C3 1376   4.230   2.455   5.523  0.2285 -0.0357 -0.4685
   11POPC    HX 1377   4.337   2.441   5.496  0.5979 -1.3759  1.5978
   11POPC    HY 1378   4.197   2.542   5.585 -2.1860 -1.2649  0.0451
   11POPC   O31 1379   4.152   2.451   5.403  0.3893  0.2778 -0.5851
   11POPC   C31 1380   4.037   2.519   5.396  0.2599  0.1030 -0.1877
   11POPC   O32 1381   4.005   2.610   5.471  0.3555  0.1733 -0.2319
   11POPC   C32 1382   3.963   2.477   5.270 -0.9368  0.2176  0.4708
   11POPC   H2X 1383   4.003   2.387   5.219 -1.5985 -0.1570  0.6040
   11POPC   H2Y 1384   3.964   2.549   5.186  1.2986 -0.0025  0.2747
   11POPC   C23 1385   3.949   1.997   5.392  0.3548 -0.1042 -0.2977
   11POPC   H3R 1386   3.899   2.064   5.319  2.1670 -0.3913 -1.8627
   11POPC   H3S 1387   3.875   2.001   5.474  0.6020  0.6302 -0.1067
   11POPC   C24 1388   3.944   1.854   5.338 -0.1332 -0.1225 -0.2014
   11POPC   H4R 1389   3.991   1.779   5.405  1.0630  0.6190 -0.2020
   11POPC   H4S 1390   4.000   1.847   5.242 -0.8054 -0.2727 -0.5927
   11POPC   C25 1391   3.801   1.810   5.306 -0.2322 -0.4138  0.6270
   11POPC   H5R 1392   3.726   1.857   5.373  0.0322  0.0765  0.5830
   11POPC   H5S 1393   3.780   1.702   5.318 -3.1774  0.1175  0.6590
   11POPC   C26 1394   3.749   1.860   5.171 -0.3701  0.2227  0.9136
   11POPC   H6R 1395   3.807   1.833   5.080 -0.4772 -1.3909  1.3176
   11POPC   H6S 1396   3.754   1.971   5.169  1.3376  0.1865 -3.3932
   11POPC   C27 1397   3.611   1.807   5.132 -0.2673  0.1880  0.5946
   11POPC   H7R 1398   3.536   1.867   5.189 -1.3866 -0.3621 -0.2809
   11POPC   H7S 1399   3.594   1.699   5.154 -0.4752 -0.0342 -0.6367
   11POPC   C28 1400   3.581   1.832   4.984 -0.7533 -0.4622  0.5829
   11POPC   H8R 1401   3.649   1.916   4.962 -2.5186  0.6206 -0.9181
   11POPC   H8S 1402   3.477   1.868   4.972 -0.1080  1.3274  0.2965
   11POPC   C29 1403   3.608   1.714   4.896  0.2105 -0.3389  0.7112
   11POPC   H91 1404   3.716   1.696   4.880 -0.1677  0.0588 -2.7800
   11POPC  C210 1405   3.520   1.642   4.825  0.0956  0.0188  0.4894
   11POPC  H101 1406   3.563   1.557   4.770 -0.3826 -0.9064  1.5223
   11POPC  C211 1407   3.370   1.644   4.822  0.0885 -0.4470  0.3712
   11POPC  H11R 1408   3.337   1.652   4.716 -0.0819 -2.1934  0.2884
   11POPC  H11S 1409   3.331   1.727   4.885  1.9001 -1.0725  2.3807
   11POPC  C212 1410   3.313   1.513   4.876 -0.3982 -0.2202  0.4093
   11POPC  H12R 1411   3.206   1.528   4.903 -0.5232 -2.3865  1.2212
   11POPC  H12S 1412   3.371   1.475   4.962  0.6217 -4.7653 -2.1088
   11POPC  C213 1413   3.315   1.398   4.775 -0.6402  0.3241 -0.2245
   11POPC  H13R 1414   3.411   1.397   4.720 -1.5469  0.6025 -1.8341
   11POPC  H13S 1415   3.226   1.412   4.710 -1.9917 -1.8241  1.0698
   11POPC  C214 1416   3.274   1.262   4.832  0.5122 -0.0759 -0.3331
   11POPC  H14R 1417   3.184   1.277   4.895 -1.2739  0.5079 -2.8962
   11POPC  H14S 1418   3.365   1.227   4.885  0.8823  0.6865 -0.4687
   11POPC  C215 1419   3.244   1.154   4.726  0.0918 -0.1338 -0.1576
   11POPC  H15R 1420   3.158   1.182   4.663  1.1163  0.1902 -1.4257
   11POPC  H15S 1421   3.221   1.064   4.787 -0.2719 -0.9441 -1.4886
   11POPC  C216 1422   3.360   1.125   4.630 -0.1255  0.2073 -0.5235
   11POPC  H16R 1423   3.460   1.114   4.677 -0.6742  1.4673  1.0077
   11POPC  H16S 1424   3.364   1.214   4.564  2.2687  1.3930  1.1380
   11POPC  C217 1425   3.335   1.000   4.547  0.4371 -0.4298  0.2636
   11POPC  H17R 1426   3.421   1.013   4.478  0.3263  0.1169  0.2252
   11POPC  H17S 1427   3.236   1.012   4.498  0.4132  1.0895  0.6805
   11POPC  C218 1428   3.342   0.864   4.618  0.3210 -0.4846  0.1717
   11POPC  H18R 1429   3.450   0.840   4.626 -0.1228 -2.4572  0.3385
   11POPC  H18S 1430   3.295   0.788   4.552 -0.5646 -0.7113  1.0545
   11POPC  H18T 1431   3.289   0.874   4.714  0.2711  0.9210  0.0136
   11POPC   C33 1432   3.815   2.458   5.302 -0.8364 -0.0391  0.7877
   11POPC   H3X 1433   3.768   2.556   5.282  1.2698  0.3790 -2.5752
   11POPC   H3Y 1434   3.803   2.432   5.409 -2.6129 -2.3141  0.1036
   11POPC   C34 1435   3.743   2.346   5.225  0.8026 -0.4948 -0.1015
   11POPC   H4X 1436   3.798   2.252   5.248  0.6338 -0.3669  0.8506
   11POPC   H4Y 1437   3.740   2.366   5.116 -0.5204  1.4233  0.2719
   11POPC   C35 1438   3.596   2.322   5.261  0.8916 -0.3491  0.3597
   11POPC   H5X 1439   3.540   2.417   5.244  1.7451  0.1287  0.1426
   11POPC   H5Y 1440   3.592   2.290   5.367  1.4304 -2.0876 -0.1302
   11POPC   C36 1441   3.530   2.221   5.168 -0.1752  1.0275 -0.3832
   11POPC   H6X 1442   3.588   2.127   5.167  2.5497  2.6028  1.6841
   11POPC   H6Y 1443   3.526   2.272   5.069 -3.0208 -0.0665 -0.8892
   11POPC   C37 1444   3.383   2.198   5.202  0.1000 -0.2487 -0.0496
   11POPC   H7X 1445   3.327   2.279   5.253 -0.1829  0.1329 -0.9587
   11POPC   H7Y 1446   3.381   2.112   5.272 -1.9747  2.5274  3.4901
   11POPC   C38 1447   3.314   2.136   5.080  0.1881 -0.1608 -0.1447
   11POPC   H8X 1448   3.230   2.068   5.107 -1.5525  2.2579  0.7341
   11POPC   H8Y 1449   3.391   2.077   5.027  0.6193 -0.0977  0.4092
   11POPC   C39 1450   3.244   2.241   4.993 -0.3785 -0.3598  0.0713
   11POPC   H9X 1451   3.182   2.195   4.913 -0.2965 -0.6178  0.1547
   11POPC   H9Y 1452   3.318   2.307   4.943 -0.0644  0.8900  2.1262
   11POPC  C310 1453   3.138   2.330   5.059  0.3981  0.1402  0.6545
   11POPC  H10X 1454   3.193   2.411   5.111  0.8479  0.6855 -0.6648
   11POPC  H10Y 1455   3.087   2.264   5.133  1.0695 -2.7602 -1.3970
   11POPC  C311 1456   3.029   2.385   4.968  0.2136 -0.5853  0.4281
   11POPC  H11X 1457   2.961   2.453   5.025 -0.1852  1.3243 -2.2061
   11POPC  H11Y 1458   2.967   2.305   4.921  1.1479 -1.0551 -0.0061
   11POPC  C312 1459   3.083   2.482   4.862 -0.3606 -0.3765  0.3195
   11POPC  H12X 1460   3.155   2.421   4.803  1.0590  0.9577  0.6144
   11POPC  H12Y 1461   3.136   2.570   4.905 -0.9828 -0.0338  0.3936
   11POPC  C313 1462   2.974   2.524   4.763  0.0250 -0.1496 -0.0105
   11POPC  H13X 1463   2.924   2.431   4.729 -0.3944  0.3827 -0.8423
   11POPC  H13Y 1464   3.029   2.564   4.675 -1.4655 -1.1121 -1.3933
   11POPC  C314 1465   2.863   2.610   4.823  0.0440 -0.4230  0.4239
   11POPC  H14X 1466   2.817   2.571   4.916  1.5636 -0.8990  1.0046
   11POPC  H14Y 1467   2.779   2.627   4.753  0.3064 -3.4874 -0.7052
   11POPC  C315 1468   2.919   2.746   4.867 -0.1399 -0.2247  0.0491
   11POPC  H15X 1469   2.974   2.732   4.962  1.0272  0.4510 -0.5210
   11POPC  H15Y 1470   2.835   2.807   4.906 -0.9722 -0.8171 -0.7921
   11POPC  C316 1471   2.993   2.830   4.764 -0.5604 -0.1882 -0.2266
   11POPC  H16X 1472   2.922   2.859   4.684  1.5528  2.6998 -1.1479
   11POPC  H16Y 1473   3.076   2.777   4.713 -0.8682  1.5851 -2.6828
   11POPC  H16Z 1474   3.024   2.932   4.796  2.6722 -1.5643  1.2837
   12POPC     N 1475   1.532   3.126   6.490  0.4426  0.4633  0.1381
   12POPC   C12 1476   1.550   2.999   6.409  0.5802  0.6084 -0.0603
   12POPC  H12A 1480   1.488   2.917   6.440  0.0461  0.2314 -2.0458
   12POPC  H12B 1481   1.650   2.963   6.430  0.5261  1.5242  1.9149
   12POPC   C13 1477   1.401   3.195   6.459  0.0221 -0.2548  0.2979
   12POPC  H13A 1482   1.410   3.238   6.360 -2.6804 -0.0261  0.1051
   12POPC  H13B 1483   1.321   3.122   6.462  0.9514 -1.3520 -0.9077
   12POPC  H13C 1484   1.386   3.272   6.533 -1.5769 -0.1539 -0.1146
   12POPC   C14 1478   1.528   3.091   6.636  0.5858 -0.5005 -0.0868
   12POPC  H14A 1485   1.449   3.017   6.647  1.2736 -1.0688  1.1870
   12POPC  H14B 1486   1.613   3.030   6.664 -0.1802 -1.1449  0.8913
   12POPC  H14C 1487   1.524   3.179   6.698 -0.2892 -0.1327 -0.6575
   12POPC   C15 1479   1.642   3.228   6.475  0.4886  0.4712  0.5356
   12POPC  H15A 1488   1.630   3.302   6.552 -1.1931 -0.4284  1.1476
   12POPC  H15B 1489   1.626   3.286   6.385  0.2658 -1.6296 -0.8229
   12POPC  H15C 1490   1.739   3.179   6.480 -1.4192 -3.5243  0.2059
   12POPC   C11 1491   1.528   3.010   6.258 -0.0295 -0.2015 -0.0295
   12POPC  H11A 1492   1.420   3.034   6.248 -0.4469 -2.6988 -1.9785
   12POPC  H11B 1493   1.528   2.910   6.209 -0.7852  0.6383 -1.7848
   12POPC     P 1494   1.567   3.183   6.072 -0.0151  0.4737  0.0740
   12POPC   O13 1495   1.665   3.284   6.024  0.0526  0.0821 -0.6123
   12POPC   O14 1496   1.428   3.226   6.098  0.1657  0.9873  0.2023
   12POPC   O12 1497   1.623   3.096   6.195 -0.0827 -0.5865 -0.6395
   12POPC   O11 1498   1.558   3.063   5.967  0.1895  0.5678 -0.0518
   12POPC    C1 1499   1.679   2.999   5.926  0.1086  0.1810  0.3043
   12POPC    HA 1500   1.659   2.890   5.921  2.8130 -0.3122 -1.1291
   12POPC    HB 1501   1.766   3.007   5.995  0.1283  0.2526  0.2722
   12POPC    C2 1502   1.731   3.045   5.789  0.0509 -0.2043  0.1555
   12POPC    HS 1503   1.749   3.154   5.784 -2.1415  0.2366  1.4329
   12POPC   O21 1504   1.646   2.995   5.685 -0.3408 -0.3413  0.5399
   12POPC   C21 1505   1.554   3.085   5.652  0.5427  0.2787 -0.2546
   12POPC   O22 1506   1.547   3.203   5.684  0.2601  0.2062 -0.0452
   12POPC   C22 1507   1.448   3.014   5.569  0.5070 -0.3617  0.3397
   12POPC   H2R 1508   1.350   3.022   5.621 -1.1883 -0.6563 -2.7235
   12POPC   H2S 1509   1.470   2.905   5.569 -1.9483 -0.8911  0.1577
   12POPC    C3 1510   1.868   2.978   5.764 -0.0713 -0.2530 -0.3970
   12POPC    HX 1511   1.849   2.869   5.759  0.6521 -0.3650 -0.7265
   12POPC    HY 1512   1.924   2.999   5.858 -1.1805  0.7264  0.0714
   12POPC   O31 1513   1.932   3.036   5.650 -0.1460  0.1014 -0.2604
   12POPC   C31 1514   2.062   3.006   5.644 -0.1352  0.1058 -0.0546
   12POPC   O32 1515   2.116   2.925   5.717  0.1168  0.0746 -0.2757
   12POPC   C32 1516   2.123   3.104   5.545 -0.1197 -0.2960 -0.4424
   12POPC   H2X 1517   2.178   3.191   5.585  1.2635 -1.2563 -0.2246
   12POPC   H2Y 1518   2.039   3.129   5.476  0.2781 -3.0009 -2.0075
   12POPC   C23 1519   1.422   3.080   5.433  0.1127 -0.6195  0.2859
   12POPC   H3R 1520   1.517   3.087   5.375 -1.2129  3.6037 -1.5492
   12POPC   H3S 1521   1.394   3.185   5.456 -0.9606 -1.2948  2.1766
   12POPC   C24 1522   1.303   3.028   5.353 -0.0349  0.1718 -0.0136
   12POPC   H4R 1523   1.215   3.001   5.414  1.6909  0.5397  2.7111
   12POPC   H4S 1524   1.343   2.933   5.311  1.9283  0.8468  0.2509
   12POPC   C25 1525   1.259   3.128   5.246 -0.9137  0.5224  0.6710
   12POPC   H5R 1526   1.346   3.177   5.198 -1.1830 -0.1340 -0.5180
   12POPC   H5S 1527   1.202   3.207   5.299 -1.5130  0.5496 -0.0120
   12POPC   C26 1528   1.164   3.069   5.141  0.0048 -0.5133  0.4032
   12POPC   H6R 1529   1.107   3.155   5.098  0.7085 -0.2739 -0.0467
   12POPC   H6S 1530   1.081   3.017   5.194 -1.5018  0.3309 -1.1010
   12POPC   C27 1531   1.237   2.998   5.027 -0.1823  0.8390 -0.5806
   12POPC   H7R 1532   1.322   2.937   5.064 -0.5319 -0.7389 -2.3198
   12POPC   H7S 1533   1.291   3.079   4.975  1.6069  0.9742  1.4032
   12POPC   C28 1534   1.149   2.903   4.945  0.2212 -0.2582  0.2388
   12POPC   H8R 1535   1.056   2.960   4.928  0.7139  0.0147 -1.7230
   12POPC   H8S 1536   1.124   2.814   5.007  0.1244  1.1310  2.2356
   12POPC   C29 1537   1.209   2.870   4.811 -0.5122  0.1450 -0.1923
   12POPC   H91 1538   1.256   2.950   4.751 -0.0980  1.5882  1.9819
   12POPC  C210 1539   1.218   2.747   4.760  0.6892 -0.1076  0.5870
   12POPC  H101 1540   1.249   2.733   4.655  0.3622 -0.9026  0.5958
   12POPC  C211 1541   1.164   2.622   4.823  0.3390  0.0176  0.5360
   12POPC  H11R 1542   1.097   2.641   4.910  0.0351  0.6905  0.1553
   12POPC  H11S 1543   1.248   2.557   4.856  0.8876  0.1044 -0.6372
   12POPC  C212 1544   1.084   2.549   4.715  0.5904  0.2438  0.1946
   12POPC  H12R 1545   1.067   2.442   4.738 -0.2188  0.4973  0.7905
   12POPC  H12S 1546   1.161   2.549   4.635  0.4956  2.6483  0.0717
   12POPC  C213 1547   0.954   2.623   4.680  0.4419 -0.0069  0.2106
   12POPC  H13R 1548   0.969   2.729   4.708 -2.1519  0.6915 -0.9874
   12POPC  H13S 1549   0.870   2.587   4.742 -2.0237  0.5600 -2.7254
   12POPC  C214 1550   0.908   2.622   4.534 -0.2281 -0.2922  0.4251
   12POPC  H14R 1551   0.924   2.518   4.498 -1.3578  0.5658 -2.6754
   12POPC  H14S 1552   0.982   2.684   4.479 -1.6997 -1.2666 -2.7419
   12POPC  C215 1553   0.770   2.680   4.504  0.0436  0.0764 -0.1106
   12POPC  H15R 1554   0.758   2.770   4.569 -0.5037 -0.2721  0.2734
   12POPC  H15S 1555   0.682   2.620   4.537  0.1091 -0.1369 -0.3225
   12POPC  C216 1556   0.758   2.729   4.359  0.2863  0.0760 -0.1315
   12POPC  H16R 1557   0.859   2.753   4.319  0.8690  1.1680  1.8760
   12POPC  H16S 1558   0.718   2.833   4.359 -2.2852 -0.8784 -0.5660
   12POPC  C217 1559   0.678   2.636   4.269  0.3052 -0.2066  0.1397
   12POPC  H17R 1560   0.568   2.649   4.280  0.3236  1.5536 -1.4277
   12POPC  H17S 1561   0.693   2.528   4.287  0.1649 -0.4965 -1.4312
   12POPC  C218 1562   0.706   2.673   4.123 -0.4958  0.4073  0.1357
   12POPC  H18R 1563   0.632   2.614   4.065 -2.7335 -0.0183  3.2720
   12POPC  H18S 1564   0.804   2.631   4.095 -0.1056 -0.2505  2.3935
   12POPC  H18T 1565   0.706   2.781   4.100 -0.2699  0.4192  0.1925
   12POPC   C33 1566   2.227   3.028   5.462  0.3185 -0.3567  0.1651
   12POPC   H3X 1567   2.174   2.940   5.421  0.5063  0.1043 -1.0880
   12POPC   H3Y 1568   2.315   2.993   5.521  1.4762  0.8542 -0.8041
   12POPC   C34 1569   2.298   3.094   5.343 -0.3433 -0.3238 -0.2109
   12POPC   H4X 1570   2.349   3.014   5.286  2.2344  1.4552 -0.4863
   12POPC   H4Y 1571   2.382   3.159   5.374 -0.2985  0.9229 -2.8517
   12POPC   C35 1572   2.202   3.181   5.262  0.4247  0.5584 -0.1761
   12POPC   H5X 1573   2.154   3.259   5.326 -0.2066  0.9323 -1.0954
   12POPC   H5Y 1574   2.117   3.127   5.216  1.6587  0.6668 -2.6560
   12POPC   C36 1575   2.278   3.239   5.143  0.8745  0.3884  0.0295
   12POPC   H6X 1576   2.329   3.158   5.086  0.2586  0.7354 -1.0254
   12POPC   H6Y 1577   2.358   3.312   5.170  0.1388  1.4597 -0.6777
   12POPC   C37 1578   2.196   3.320   5.043  0.3622 -0.2681 -0.0849
   12POPC   H7X 1579   2.164   3.412   5.097  0.2850 -0.0977 -0.4174
   12POPC   H7Y 1580   2.099   3.277   5.012  0.1419  0.5990 -0.6418
   12POPC   C38 1581   2.277   3.348   4.916  0.6461 -0.3292  0.0804
   12POPC   H8X 1582   2.313   3.254   4.869 -2.0070 -0.7168 -1.2949
   12POPC   H8Y 1583   2.367   3.406   4.943  0.7079 -0.0936 -0.6201
   12POPC   C39 1584   2.203   3.434   4.813  0.5611  0.1728  0.5629
   12POPC   H9X 1585   2.098   3.396   4.817  1.4297 -2.7157 -2.2141
   12POPC   H9Y 1586   2.248   3.403   4.717  1.1219  0.9813  0.5572
   12POPC  C310 1587   2.184   3.585   4.831 -0.1931  0.1725 -0.1605
   12POPC  H10X 1588   2.095   3.600   4.896 -0.3677 -0.4560 -0.2486
   12POPC  H10Y 1589   2.159   3.619   4.729 -2.0884  2.2170  0.9398
   12POPC  C311 1590   2.319   3.650   4.865 -0.2933  0.1875  0.2143
   12POPC  H11X 1591   2.390   3.644   4.780  0.5791 -0.0557  0.9538
   12POPC  H11Y 1592   2.373   3.598   4.946 -0.8818 -0.4946  0.1738
   12POPC  C312 1593   2.299   3.793   4.916  0.3228  0.1464  0.5655
   12POPC  H12X 1594   2.227   3.796   5.000  0.6329 -0.8722  0.8709
   12POPC  H12Y 1595   2.259   3.856   4.833 -0.5832 -0.9511  0.1605
   12POPC  C313 1596   2.435   3.852   4.955  0.6947 -0.1644 -0.2512
   12POPC  H13X 1597   2.514   3.840   4.877  1.2617 -0.0221  0.2970
   12POPC  H13Y 1598   2.493   3.796   5.032 -1.9657 -1.5099  0.8346
   12POPC  C314 1599   2.433   4.000   4.992  0.1079 -0.3110  0.2936
   12POPC  H14X 1600   2.375   4.021   5.085  0.4311 -0.4911  0.5359
   12POPC  H14Y 1601   2.391   4.059   4.908 -0.2440  0.6543  1.1248
   12POPC  C315 1602   2.577   4.043   5.019 -0.1226  0.3963  0.4141
   12POPC  H15X 1603   2.584   4.154   5.019  2.0096  0.2938 -1.5169
   12POPC  H15Y 1604   2.642   4.018   4.932 -0.1969  0.9528  0.1953
   12POPC  C316 1605   2.631   3.988   5.151 -0.3610  0.0022  0.3478
   12POPC  H16X 1606   2.742   3.989   5.148 -0.3105  2.7219  1.6085
   12POPC  H16Y 1607   2.603   3.881   5.162  0.7890 -0.2935  0.4658
   12POPC  H16Z 1608   2.593   4.042   5.240 -1.1555  0.4103 -0.2250
   13POPC     N 1609   2.134   3.835   6.697  0.0152  0.1308 -0.0206
   13POPC   C12 1610   2.120   3.770   6.561  0.4019  0.2024 -0.0945
   13POPC  H12A 1614   2.027   3.716   6.558  0.5981 -0.0520 -2.9169
   13POPC  H12B 1615   2.197   3.696   6.543 -1.2640 -1.0763 -2.0158
   13POPC   C13 1611   2.181   3.733   6.798 -0.3030  0.4699  0.4727
   13POPC  H13A 1616   2.273   3.694   6.756  0.1992  2.0406  0.0652
   13POPC  H13B 1617   2.198   3.786   6.890 -0.6054  0.3284  0.6113
   13POPC  H13C 1618   2.104   3.657   6.801 -1.2873  1.3471 -1.8995
   13POPC   C14 1612   2.240   3.942   6.691  0.5057 -0.3070  0.7233
   13POPC  H14A 1619   2.325   3.897   6.642  0.9638 -0.8824  2.0113
   13POPC  H14B 1620   2.205   4.029   6.637 -0.0627 -0.2758  1.1397
   13POPC  H14C 1621   2.276   3.980   6.786 -0.9672 -0.9310  1.5332
   13POPC   C15 1613   2.012   3.903   6.753  0.3148  0.1879  0.5731
   13POPC  H15A 1622   1.976   3.967   6.673  3.3387  0.1573 -0.8811
   13POPC  H15B 1623   2.035   3.981   6.824  0.0792  0.8359 -0.0538
   13POPC  H15C 1624   1.940   3.833   6.791 -0.3645  0.2509 -0.5680
   13POPC   C11 1625   2.122   3.854   6.434  0.2490  0.7636  0.2699
   13POPC  H11A 1626   2.122   3.779   6.352  0.8912  2.5049 -1.3588
   13POPC  H11B 1627   2.214   3.913   6.416  0.2968  0.5140 -0.3423
   13POPC     P 1628   1.949   3.955   6.282  0.3361 -0.1538 -0.2315
   13POPC   O13 1629   1.896   4.093   6.277  0.3695 -0.1378 -0.1438
   13POPC   O14 1630   1.852   3.847   6.251 -0.2709 -0.0779  1.3452
   13POPC   O12 1631   2.006   3.937   6.430 -0.4272 -0.1879  0.0589
   13POPC   O11 1632   2.072   3.943   6.180  0.4680 -0.6049 -0.0174
   13POPC    C1 1633   2.141   4.061   6.140 -0.0614 -0.1206  0.4951
   13POPC    HA 1634   2.243   4.025   6.116 -0.3812 -0.4333 -0.4008
   13POPC    HB 1635   2.146   4.135   6.223  0.8826 -0.7323  0.9951
   13POPC    C2 1636   2.067   4.126   6.022  0.0735 -0.6788  0.1018
   13POPC    HS 1637   1.974   4.170   6.065  1.0120  1.2747  0.1870
   13POPC   O21 1638   2.021   4.024   5.933  0.3877  0.0450 -0.9019
   13POPC   C21 1639   1.912   4.059   5.865 -0.0340 -0.2342 -0.3789
   13POPC   O22 1640   1.864   4.171   5.864  0.3572 -0.0551  0.5887
   13POPC   C22 1641   1.877   3.937   5.782 -0.3684 -0.6437  0.3592
   13POPC   H2R 1642   1.838   3.853   5.844  1.3075 -1.6980  0.0336
   13POPC   H2S 1643   1.970   3.896   5.736  1.3708 -1.0130  4.0030
   13POPC    C3 1644   2.147   4.237   5.952 -0.9551  0.1641  0.2522
   13POPC    HX 1645   2.246   4.248   6.001 -0.8512 -1.4177  0.4268
   13POPC    HY 1646   2.096   4.333   5.973  1.6289  2.1608 -2.1443
   13POPC   O31 1647   2.161   4.219   5.811  0.0489  0.1487  0.3477
   13POPC   C31 1648   2.259   4.133   5.784  0.0902  0.2614  0.1338
   13POPC   O32 1649   2.330   4.074   5.864  0.4054 -0.0900 -0.4019
   13POPC   C32 1650   2.285   4.124   5.634  0.7214 -0.1206  0.2641
   13POPC   H2X 1651   2.379   4.178   5.608  0.8656 -0.2889  0.4357
   13POPC   H2Y 1652   2.213   4.178   5.568  1.6931  0.6727 -0.1615
   13POPC   C23 1653   1.772   3.960   5.673  0.0644  0.0367  0.0835
   13POPC   H3R 1654   1.821   4.015   5.589 -2.5854 -2.3257 -3.1247
   13POPC   H3S 1655   1.682   4.023   5.690 -0.8245 -1.1059 -0.2825
   13POPC   C24 1656   1.707   3.830   5.626 -0.1992  0.0752  0.3393
   13POPC   H4R 1657   1.660   3.784   5.715  0.6455  0.1383  0.8128
   13POPC   H4S 1658   1.781   3.756   5.587  0.1925  0.9527 -0.6126
   13POPC   C25 1659   1.602   3.866   5.520  0.0484  0.4760  0.2315
   13POPC   H5R 1660   1.645   3.941   5.450 -3.2433  1.3214 -0.9627
   13POPC   H5S 1661   1.511   3.915   5.559 -0.3237  1.0698 -1.3425
   13POPC   C26 1662   1.564   3.747   5.432  0.7381  0.1273  0.3971
   13POPC   H6R 1663   1.650   3.708   5.374 -0.0404 -0.7746 -0.1691
   13POPC   H6S 1664   1.484   3.766   5.357 -0.2859  1.1295  1.7078
   13POPC   C27 1665   1.504   3.626   5.504  0.9847 -0.4521 -0.3669
   13POPC   H7R 1666   1.422   3.661   5.570  0.0873 -1.0178 -1.1633
   13POPC   H7S 1667   1.588   3.594   5.568  0.0626 -0.2955  0.9410
   13POPC   C28 1668   1.464   3.510   5.413  0.5837  0.0900 -0.8914
   13POPC   H8R 1669   1.458   3.418   5.475 -1.9543 -0.1266 -1.3994
   13POPC   H8S 1670   1.545   3.491   5.339  2.7001  0.3971  1.2889
   13POPC   C29 1671   1.331   3.540   5.350  0.3125  0.0137 -0.3522
   13POPC   H91 1672   1.255   3.578   5.421  0.7176  0.5043 -0.1794
   13POPC  C210 1673   1.307   3.548   5.219 -0.3506  0.1092 -0.2304
   13POPC  H101 1674   1.206   3.580   5.192 -0.7518 -0.9635 -0.0373
   13POPC  C211 1675   1.401   3.548   5.101  0.2556  0.3384  0.2491
   13POPC  H11R 1676   1.379   3.462   5.034 -0.6064  1.2367 -0.6384
   13POPC  H11S 1677   1.506   3.537   5.136  0.9960  2.6031 -1.1685
   13POPC  C212 1678   1.381   3.676   5.021  0.1580 -0.1679 -0.5421
   13POPC  H12R 1679   1.403   3.765   5.084  1.7897 -0.2439 -0.9792
   13POPC  H12S 1680   1.276   3.674   4.986 -0.3252  0.6118  0.8308
   13POPC  C213 1681   1.486   3.680   4.909  0.2233  0.1986 -0.4722
   13POPC  H13R 1682   1.590   3.688   4.949  0.5455 -1.5247 -0.9046
   13POPC  H13S 1683   1.480   3.782   4.866 -1.0602  1.8244  3.3115
   13POPC  C214 1684   1.469   3.567   4.807  0.0060 -0.2653  0.0688
   13POPC  H14R 1685   1.366   3.578   4.766 -0.0873 -0.8149  0.1582
   13POPC  H14S 1686   1.479   3.471   4.861  1.1267 -0.4807 -0.4980
   13POPC  C215 1687   1.569   3.576   4.691  0.0721 -0.5436  0.1061
   13POPC  H15R 1688   1.559   3.674   4.641  3.0253 -1.0297 -1.5623
   13POPC  H15S 1689   1.535   3.504   4.612  0.0567  1.7075 -1.9918
   13POPC  C216 1690   1.710   3.532   4.730  0.1283 -0.1719  0.3237
   13POPC  H16R 1691   1.715   3.448   4.803  0.8970 -0.8373 -0.4812
   13POPC  H16S 1692   1.766   3.619   4.770  0.7623  0.4780 -1.8989
   13POPC  C217 1693   1.781   3.489   4.601  0.1447 -0.2201  0.3475
   13POPC  H17R 1694   1.727   3.401   4.559  0.7666 -0.3008 -0.2817
   13POPC  H17S 1695   1.881   3.452   4.631  0.6402  1.5669  0.9807
   13POPC  C218 1696   1.793   3.593   4.489 -0.0645 -0.4431  0.1196
   13POPC  H18R 1697   1.837   3.690   4.520 -1.3285  0.7490 -1.6875
   13POPC  H18S 1698   1.690   3.605   4.448 -0.8922  1.0962  2.4889
   13POPC  H18T 1699   1.855   3.549   4.409  0.2880  0.2405  0.0211
   13POPC   C33 1700   2.272   3.977   5.595  0.7569 -0.0818  0.1039
   13POPC   H3X 1701   2.165   3.950   5.590  0.7745 -0.1177 -0.0757
   13POPC   H3Y 1702   2.328   3.913   5.667 -0.4649 -0.2866  0.8723
   13POPC   C34 1703   2.330   3.948   5.456  0.2828  0.3068 -0.1751
   13POPC   H4X 1704   2.441   3.951   5.463  0.1480  1.0680  2.2679
   13POPC   H4Y 1705   2.294   4.010   5.371  0.2483  0.3057 -0.1616
   13POPC   C35 1706   2.286   3.813   5.401  0.4909  0.1217  0.1065
   13POPC   H5X 1707   2.287   3.733   5.478  0.5626 -0.1932 -0.2223
   13POPC   H5Y 1708   2.356   3.787   5.318  0.6849  0.6217  0.1108
   13POPC   C36 1709   2.147   3.821   5.336  0.3548 -0.4125  0.3316
   13POPC   H6X 1710   2.150   3.882   5.244 -3.0421 -1.2264 -0.3941
   13POPC   H6Y 1711   2.067   3.872   5.394 -0.5623 -0.3698 -0.9727
   13POPC   C37 1712   2.104   3.678   5.300 -0.2591 -0.1099 -0.1438
   13POPC   H7X 1713   2.066   3.623   5.389  0.3070 -0.9571 -0.4288
   13POPC   H7Y 1714   2.194   3.623   5.265  0.3843  1.7328 -1.5118
   13POPC   C38 1715   2.006   3.667   5.184 -0.3284  0.1686 -0.1112
   13POPC   H8X 1716   1.994   3.557   5.177 -0.5209  0.2459 -1.2039
   13POPC   H8Y 1717   2.054   3.688   5.085 -1.3727 -0.5775 -0.7900
   13POPC   C39 1718   1.865   3.723   5.205 -0.4415 -0.3988  0.6180
   13POPC   H9X 1719   1.864   3.776   5.303  0.3517  0.4397  0.1800
   13POPC   H9Y 1720   1.795   3.638   5.223  0.9167 -1.5246  0.6837
   13POPC  C310 1721   1.800   3.806   5.095  0.3637 -0.6228 -0.0308
   13POPC  H10X 1722   1.698   3.843   5.122 -0.5164 -1.7082 -1.7963
   13POPC  H10Y 1723   1.784   3.739   5.008 -1.0901  1.1069 -1.1471
   13POPC  C311 1724   1.896   3.918   5.052 -0.0464 -0.4538 -0.5177
   13POPC  H11X 1725   1.998   3.904   5.094  1.1748  1.8592 -2.5957
   13POPC  H11Y 1726   1.857   4.018   5.079  1.5837  0.0856 -0.0979
   13POPC  C312 1727   1.924   3.911   4.902 -0.0562  0.0639 -0.5451
   13POPC  H12X 1728   1.960   3.812   4.865  1.6131  0.6400 -0.5025
   13POPC  H12Y 1729   2.008   3.982   4.884  0.2998 -0.0186  0.6978
   13POPC  C313 1730   1.812   3.964   4.814 -0.1359 -0.0059 -0.4857
   13POPC  H13X 1731   1.753   4.045   4.862 -1.2087 -2.1201  1.8272
   13POPC  H13Y 1732   1.735   3.885   4.803 -1.0878  0.8118  0.1594
   13POPC  C314 1733   1.863   4.016   4.679  0.0284 -0.1761 -0.4877
   13POPC  H14X 1734   1.932   3.936   4.643  0.7623 -1.3085  3.2278
   13POPC  H14Y 1735   1.909   4.116   4.691  1.1612 -0.7924  0.4418
   13POPC  C315 1736   1.745   4.033   4.584 -0.1352  0.5154 -0.1668
   13POPC  H15X 1737   1.775   4.117   4.518  0.9552 -1.5660 -2.4488
   13POPC  H15Y 1738   1.663   4.075   4.646  1.0250  0.1140  1.6796
   13POPC  C316 1739   1.707   3.913   4.497  0.7675 -0.3758  0.6598
   13POPC  H16X 1740   1.662   3.832   4.559  0.1386 -1.2117 -0.8505
   13POPC  H16Y 1741   1.794   3.878   4.437 -0.0780  0.7055 -1.2460
   13POPC  H16Z 1742   1.623   3.921   4.424  1.1450 -0.8605  0.1686
   14POPC     N 1743   4.660   1.181   6.452  0.0333  0.1927  0.0847
   14POPC   C12 1744   4.582   1.104   6.348 -0.3341  0.5606  0.0884
   14POPC  H12A 1748   4.499   1.163   6.311  1.3086  2.5995 -0.4626
   14POPC  H12B 1749   4.540   1.015   6.391 -3.1586  3.3266  3.3623
   14POPC   C13 1745   4.790   1.106   6.471  0.1356  0.1516 -0.7681
   14POPC  H13A 1750   4.844   1.108   6.377  0.3658  0.6647 -0.6251
   14POPC  H13B 1751   4.841   1.142   6.559  0.9891 -1.1802 -0.7008
   14POPC  H13C 1752   4.769   1.002   6.491 -0.3079  0.3220 -0.3288
   14POPC   C14 1746   4.700   1.318   6.404 -0.2471  0.3366  0.2609
   14POPC  H14A 1753   4.762   1.298   6.318 -2.5633  1.4324 -1.7532
   14POPC  H14B 1754   4.614   1.377   6.376  0.1174  2.1980  2.8421
   14POPC  H14C 1755   4.755   1.370   6.481 -0.5553  1.2979 -0.1549
   14POPC   C15 1747   4.582   1.192   6.581 -0.3263  0.3131 -0.1427
   14POPC  H15A 1756   4.486   1.239   6.563 -1.3280 -0.7798  2.1653
   14POPC  H15B 1757   4.631   1.249   6.658 -1.8974  1.6872 -0.1214
   14POPC  H15C 1758   4.571   1.092   6.622 -0.0593 -0.1554 -1.1821
   14POPC   C11 1759   4.659   1.062   6.223 -0.3035  0.2105  0.2245
   14POPC  H11A 1760   4.592   1.004   6.155  0.7680 -0.0939 -0.5932
   14POPC  H11B 1761   4.748   1.006   6.259 -0.6494 -0.6247 -0.2046
   14POPC     P 1762   4.713   1.181   6.004  0.0889 -0.2334  0.1961
   14POPC   O13 1763   4.805   1.292   5.970 -0.0766 -0.3286 -0.5744
   14POPC   O14 1764   4.577   1.195   5.948  0.4383 -0.2372 -0.6671
   14POPC   O12 1765   4.706   1.183   6.163  0.1074  0.0398  0.1936
   14POPC   O11 1766   4.776   1.038   5.970  0.0869 -0.2026  0.0614
   14POPC    C1 1767   4.915   1.013   5.992 -0.1080 -1.0749  0.3300
   14POPC    HA 1768   4.931   0.907   6.021 -0.2085 -1.6846 -1.7480
   14POPC    HB 1769   4.950   1.068   6.082 -1.1555 -0.7860  0.5745
   14POPC    C2 1770   4.989   1.041   5.861 -0.3583 -0.1500  0.3830
   14POPC    HS 1771   5.013   1.149   5.868 -0.3078 -0.0774 -0.7763
   14POPC   O21 1772   4.909   0.992   5.753 -0.0504 -0.0961  0.1269
   14POPC   C21 1773   4.910   1.068   5.644  0.3298  0.2145  0.3462
   14POPC   O22 1774   4.957   1.181   5.633  0.1003  0.2899  0.1275
   14POPC   C22 1775   4.871   0.977   5.528  0.1671  0.3687  0.2790
   14POPC   H2R 1776   4.771   0.937   5.556  1.3363 -2.0137  1.1975
   14POPC   H2S 1777   4.936   0.888   5.541 -1.2943 -1.0980 -2.0770
   14POPC    C3 1778   5.118   0.958   5.854 -0.1982  0.1304  0.0216
   14POPC    HX 1779   5.099   0.849   5.861  3.3422 -0.4392  1.8558
   14POPC    HY 1780   5.174   0.986   5.945  0.5635  0.6418 -0.5940
   14POPC   O31 1781   5.189   0.982   5.731 -0.2113  0.1266  0.0138
   14POPC   C31 1782   5.242   1.104   5.730  0.0405  0.0136 -0.3274
   14POPC   O32 1783   5.264   1.172   5.829 -0.0037  0.1038 -0.3799
   14POPC   C32 1784   5.300   1.133   5.592  0.1013 -0.4023 -0.3893
   14POPC   H2X 1785   5.229   1.094   5.516  0.3862  0.5553 -1.1469
   14POPC   H2Y 1786   5.391   1.071   5.576 -0.3347 -0.9999 -0.5844
   14POPC   C23 1787   4.889   1.054   5.397  0.4922 -0.1238  0.0358
   14POPC   H3R 1788   4.994   1.088   5.402  0.3090  0.6279 -1.0795
   14POPC   H3S 1789   4.824   1.143   5.409 -0.7192 -1.3073  2.6503
   14POPC   C24 1790   4.855   0.983   5.265  0.0263  0.6776 -0.2745
   14POPC   H4R 1791   4.849   1.061   5.187 -1.7851  0.3836 -0.4635
   14POPC   H4S 1792   4.756   0.934   5.279  0.3178 -0.3897 -1.9537
   14POPC   C25 1793   4.958   0.882   5.217 -0.0106  0.5405 -0.0652
   14POPC   H5R 1794   4.948   0.795   5.286 -1.6874  2.4047  2.1215
   14POPC   H5S 1795   5.060   0.927   5.222 -0.0259  0.5232  0.4623
   14POPC   C26 1796   4.928   0.837   5.074 -0.1364  0.3368  0.0241
   14POPC   H6R 1797   4.818   0.849   5.062 -0.1763  0.8948  0.8895
   14POPC   H6S 1798   4.951   0.728   5.080  1.9328  0.8376  1.8759
   14POPC   C27 1799   5.008   0.902   4.961 -0.0474  0.4182  0.1336
   14POPC   H7R 1800   5.114   0.876   4.979  0.3483  1.7350 -0.1859
   14POPC   H7S 1801   5.011   1.009   4.991  0.4575  0.2484  0.6807
   14POPC   C28 1802   4.971   0.875   4.815  0.1938  0.3931  0.0770
   14POPC   H8R 1803   4.863   0.902   4.807  0.2081 -0.2701 -3.0324
   14POPC   H8S 1804   4.974   0.767   4.790 -1.2645  0.9616 -2.7231
   14POPC   C29 1805   5.064   0.943   4.719 -0.4186  0.4646 -0.4683
   14POPC   H91 1806   5.160   0.980   4.757  0.2868  0.5473 -2.2525
   14POPC  C210 1807   5.035   0.976   4.592 -0.6595  0.5757 -0.3839
   14POPC  H101 1808   5.117   1.026   4.539 -0.9391 -0.0824 -1.4369
   14POPC  C211 1809   4.909   0.955   4.513 -0.5676 -0.1440 -0.3467
   14POPC  H11R 1810   4.870   1.057   4.491  2.5170  1.4512  1.2517
   14POPC  H11S 1811   4.848   0.898   4.585  0.3878 -0.1822  0.4462
   14POPC  C212 1812   4.919   0.874   4.383 -0.0462 -0.4543 -0.1129
   14POPC  H12R 1813   4.980   0.782   4.399  0.7090 -0.2464 -1.6875
   14POPC  H12S 1814   4.985   0.933   4.315  1.8908 -1.1734  1.0931
   14POPC  C213 1815   4.794   0.848   4.301 -0.3271  0.3672  0.0438
   14POPC  H13R 1816   4.832   0.775   4.226 -0.9415 -0.4590  0.5163
   14POPC  H13S 1817   4.775   0.944   4.248 -0.1770  0.3474 -0.0443
   14POPC  C214 1818   4.667   0.819   4.381 -0.0709 -0.3365  0.1968
   14POPC  H14R 1819   4.653   0.896   4.459 -0.4447  1.0698 -1.2437
   14POPC  H14S 1820   4.689   0.718   4.423  0.4309 -0.3073  0.0100
   14POPC  C215 1821   4.547   0.835   4.287  0.4454  0.3856 -0.3414
   14POPC  H15R 1822   4.557   0.936   4.241  1.0232  0.6530  0.3550
   14POPC  H15S 1823   4.446   0.844   4.331  0.2859 -0.7635 -0.4608
   14POPC  C216 1824   4.544   0.743   4.165 -0.1084  0.0867 -0.1012
   14POPC  H16R 1825   4.515   0.639   4.194 -1.1061  1.0712  2.5294
   14POPC  H16S 1826   4.649   0.730   4.130  0.3481 -1.9511  1.9243
   14POPC  C217 1827   4.444   0.797   4.063 -0.4579 -0.4191 -0.0294
   14POPC  H17R 1828   4.458   0.904   4.035  1.6562 -0.7389 -0.2776
   14POPC  H17S 1829   4.349   0.803   4.120  0.4078  1.4364  1.2489
   14POPC  C218 1830   4.430   0.702   3.944  0.1108 -0.5034 -0.0271
   14POPC  H18R 1831   4.342   0.726   3.881 -1.3632  1.5227  2.7175
   14POPC  H18S 1832   4.431   0.597   3.981 -0.1228 -0.1028  1.1139
   14POPC  H18T 1833   4.532   0.715   3.901  0.0803 -0.3051 -0.0406
   14POPC   C33 1834   5.318   1.284   5.576 -0.7595 -0.2454  0.0509
   14POPC   H3X 1835   5.404   1.308   5.642  0.9532  3.4686 -3.2828
   14POPC   H3Y 1836   5.229   1.342   5.607 -0.2276  0.8931 -0.5024
   14POPC   C34 1837   5.368   1.321   5.436  0.0774 -0.4352  0.2928
   14POPC   H4X 1838   5.354   1.428   5.409  0.9930 -0.4058 -0.0903
   14POPC   H4Y 1839   5.293   1.267   5.375 -0.0636  0.1566 -0.0618
   14POPC   C35 1840   5.507   1.270   5.397  0.3935  0.2674  0.4848
   14POPC   H5X 1841   5.498   1.268   5.286 -0.1295  0.7166  0.5134
   14POPC   H5Y 1842   5.524   1.171   5.444 -0.9109  0.3037  1.0618
   14POPC   C36 1843   5.623   1.367   5.419  0.3799  0.3674  0.1258
   14POPC   H6X 1844   5.707   1.311   5.466  0.2332  0.3329  0.3425
   14POPC   H6Y 1845   5.592   1.446   5.490 -1.3605 -0.5911  0.4665
   14POPC   C37 1846   5.678   1.418   5.286  0.5780 -0.5691 -0.1614
   14POPC   H7X 1847   5.606   1.485   5.232  1.0406  0.3494  0.3439
   14POPC   H7Y 1848   5.698   1.330   5.222  1.4227  0.5861 -1.5101
   14POPC   C38 1849   5.815   1.486   5.293  0.2307  0.0961  0.3130
   14POPC   H8X 1850   5.893   1.423   5.342 -0.9176 -1.5960  0.0169
   14POPC   H8Y 1851   5.808   1.583   5.347 -0.6352  0.3569 -0.2704
   14POPC   C39 1852   5.874   1.511   5.154  0.1554 -0.0764  0.2494
   14POPC   H9X 1853   5.840   1.438   5.078  1.5949 -0.5193  0.0084
   14POPC   H9Y 1854   5.984   1.499   5.169  0.2486  0.6757  0.1944
   14POPC  C310 1855   5.845   1.651   5.101 -0.2478 -0.1882  0.1757
   14POPC  H10X 1856   5.860   1.725   5.182 -0.6295  0.0879 -0.0027
   14POPC  H10Y 1857   5.739   1.653   5.068 -0.5589 -0.1745  1.1583
   14POPC  C311 1858   5.938   1.691   4.986 -0.0207 -0.6641  0.1940
   14POPC  H11X 1859   5.946   1.616   4.904 -2.1976 -2.3155  1.4543
   14POPC  H11Y 1860   6.039   1.707   5.030  0.2397 -0.1699 -0.5726
   14POPC  C312 1861   5.885   1.813   4.911  0.3490 -0.5563  0.1051
   14POPC  H12X 1862   5.885   1.900   4.981 -1.5040  1.0639 -1.8186
   14POPC  H12Y 1863   5.779   1.789   4.887  0.4878 -2.5262  1.3645
   14POPC  C313 1864   5.953   1.837   4.776  0.6051 -0.7249  0.2035
   14POPC  H13X 1865   6.063   1.848   4.790  1.2321 -0.6788 -4.0718
   14POPC  H13Y 1866   5.904   1.930   4.742  0.4236 -0.3261  1.5010
   14POPC  C314 1867   5.922   1.734   4.667 -0.6444 -0.1108 -0.0234
   14POPC  H14X 1868   5.813   1.718   4.652 -1.0760  0.9297  1.7811
   14POPC  H14Y 1869   5.983   1.645   4.693  0.6889  0.9025  0.3592
   14POPC  C315 1870   5.972   1.783   4.531  0.0457  0.2556  0.3592
   14POPC  H15X 1871   6.081   1.804   4.529  0.7044 -3.0239 -2.6046
   14POPC  H15Y 1872   5.919   1.881   4.538 -1.4094 -0.5932  1.7672
   14POPC  C316 1873   5.919   1.701   4.414  0.1913  0.9561 -0.1991
   14POPC  H16X 1874   5.931   1.766   4.324 -1.8694  1.2273 -0.3019
   14POPC  H16Y 1875   5.810   1.688   4.430  0.3252 -1.2225 -0.8218
   14POPC  H16Z 1876   5.980   1.608   4.406 -0.9374  0.1610  0.4027
   15POPC     N 1877   3.525   0.967   5.562  0.5330  0.2505  0.0724
   15POPC   C12 1878   3.460   0.849   5.493 -0.4026  0.5761  0.3974
   15POPC  H12A 1882   3.500   0.833   5.394 -0.8528 -0.8020  0.4381
   15POPC  H12B 1883   3.354   0.865   5.478 -0.1492  0.4913 -1.7250
   15POPC   C13 1879   3.502   0.962   5.711 -0.3041 -0.5940 -0.0825
   15POPC  H13A 1884   3.396   0.951   5.729 -0.3118 -1.5209 -0.6766
   15POPC  H13B 1885   3.561   0.886   5.759  2.4454  1.0694 -0.7208
   15POPC  H13C 1886   3.537   1.056   5.752 -0.0022  0.2614 -2.2369
   15POPC   C14 1880   3.676   0.970   5.556  0.5442 -0.5009 -0.0818
   15POPC  H14A 1887   3.718   1.054   5.610  0.6090 -0.1066 -0.7507
   15POPC  H14B 1888   3.714   0.881   5.606  0.1725 -0.7503 -0.2442
   15POPC  H14C 1889   3.707   0.969   5.453 -0.7492  0.0537 -0.4792
   15POPC   C15 1881   3.470   1.099   5.516  0.4319 -0.0788 -0.7587
   15POPC  H15A 1890   3.366   1.117   5.540 -0.5203 -1.0218 -3.8707
   15POPC  H15B 1891   3.466   1.115   5.409  3.8483 -0.5813 -1.0064
   15POPC  H15C 1892   3.526   1.180   5.559 -2.7504  0.9445  1.6387
   15POPC   C11 1893   3.468   0.712   5.560 -0.4647  0.4074  0.0651
   15POPC  H11A 1894   3.474   0.639   5.477  0.0733  2.7271 -2.0038
   15POPC  H11B 1895   3.368   0.711   5.609  0.0673  1.2716  1.1931
   15POPC     P 1896   3.567   0.568   5.737 -0.1018  0.4826 -0.0166
   15POPC   O13 1897   3.446   0.574   5.822  0.4091 -0.2472  0.7707
   15POPC   O14 1898   3.692   0.556   5.816 -0.1157 -0.3357 -0.1131
   15POPC   O12 1899   3.583   0.697   5.644 -0.1909  0.2667 -0.3327
   15POPC   O11 1900   3.554   0.447   5.633  0.3450  0.1563  0.3003
   15POPC    C1 1901   3.586   0.317   5.682 -0.0923 -0.1734 -0.2829
   15POPC    HA 1902   3.510   0.248   5.640  0.4520 -0.1589 -1.3349
   15POPC    HB 1903   3.580   0.317   5.792  1.6212  0.2732 -0.1756
   15POPC    C2 1904   3.721   0.266   5.626  0.0859  0.0284 -0.0414
   15POPC    HS 1905   3.809   0.327   5.657  1.1661 -1.3627 -0.3593
   15POPC   O21 1906   3.717   0.272   5.483 -0.9624  0.0758 -0.0143
   15POPC   C21 1907   3.739   0.392   5.428  0.4555 -0.0195  0.3308
   15POPC   O22 1908   3.809   0.481   5.474 -0.1170  0.8655 -0.5010
   15POPC   C22 1909   3.698   0.374   5.283  0.1808 -0.4009  0.4535
   15POPC   H2R 1910   3.648   0.276   5.266  0.7235 -0.9439  1.8803
   15POPC   H2S 1911   3.785   0.391   5.217 -1.4182  0.8361 -1.3976
   15POPC    C3 1912   3.739   0.122   5.675 -0.5719 -0.1043 -0.1732
   15POPC    HX 1913   3.639   0.075   5.668 -1.6752  2.2347 -0.7715
   15POPC    HY 1914   3.779   0.118   5.779 -1.4896  0.4547  0.2064
   15POPC   O31 1915   3.838   0.061   5.591 -0.1193  0.1544  0.1690
   15POPC   C31 1916   3.833   7.890   5.596 -0.5162  0.1080 -0.3942
   15POPC   O32 1917   3.763   7.823   5.670 -0.4642  0.4777 -0.0075
   15POPC   C32 1918   3.927   7.836   5.489  0.0185 -0.1488  0.2093
   15POPC   H2X 1919   3.919   7.725   5.491  0.4140 -0.1757  0.4798
   15POPC   H2Y 1920   4.031   7.872   5.504  0.0363  1.0371 -2.4896
   15POPC   C23 1921   3.599   0.488   5.259  0.2308 -0.3542  0.4721
   15POPC   H3R 1922   3.636   0.588   5.290 -1.0002  0.0166  0.7609
   15POPC   H3S 1923   3.504   0.481   5.316  0.1270  0.3603  0.3917
   15POPC   C24 1924   3.568   0.495   5.109 -0.0268  0.5084  0.5607
   15POPC   H4R 1925   3.489   0.572   5.095 -0.9569 -0.7369 -1.1613
   15POPC   H4S 1926   3.521   0.397   5.085  0.7539  0.4393 -0.7387
   15POPC   C25 1927   3.683   0.527   5.014  0.1823  0.1311  0.6832
   15POPC   H5R 1928   3.729   0.433   4.979  0.1822  0.4733 -0.2471
   15POPC   H5S 1929   3.754   0.583   5.079  1.2070 -1.9746  1.4272
   15POPC   C26 1930   3.652   0.623   4.899 -0.2545 -0.2480  0.4866
   15POPC   H6R 1931   3.689   0.727   4.908 -1.0335 -0.0006  0.8505
   15POPC   H6S 1932   3.543   0.627   4.878 -0.3172  0.0247  0.8795
   15POPC   C27 1933   3.712   0.575   4.766  0.8175  0.4589  0.7134
   15POPC   H7R 1934   3.657   0.485   4.732 -0.3360  0.7496  1.7950
   15POPC   H7S 1935   3.822   0.555   4.767  0.4778 -1.4124  1.2183
   15POPC   C28 1936   3.684   0.674   4.653  0.6265 -0.1854  0.1943
   15POPC   H8R 1937   3.717   0.776   4.683  0.2856 -0.5239  1.7266
   15POPC   H8S 1938   3.576   0.660   4.633  0.1340 -0.4386  2.9226
   15POPC   C29 1939   3.754   0.631   4.527  0.0311 -0.2859 -0.1016
   15POPC   H91 1940   3.861   0.613   4.540 -0.0996  0.7498  2.5988
   15POPC  C210 1941   3.695   0.611   4.408 -0.3833  0.5609 -0.0451
   15POPC  H101 1942   3.767   0.574   4.334 -1.1290 -0.5229 -0.2385
   15POPC  C211 1943   3.556   0.640   4.358 -0.4234 -0.3881 -0.5037
   15POPC  H11R 1944   3.492   0.689   4.434  0.8231  2.3940 -1.1695
   15POPC  H11S 1945   3.515   0.538   4.343  2.7644 -1.8915  0.4734
   15POPC  C212 1946   3.540   0.716   4.226 -0.1175  0.3884 -0.1027
   15POPC  H12R 1947   3.597   0.663   4.146 -1.8698 -0.6094 -0.7320
   15POPC  H12S 1948   3.599   0.810   4.231  0.1535  0.3658 -2.2350
   15POPC  C213 1949   3.397   0.740   4.175 -0.1408  0.1627 -0.1466
   15POPC  H13R 1950   3.369   0.639   4.138  0.4142 -0.8187  2.0095
   15POPC  H13S 1951   3.406   0.816   4.096 -0.1514  1.3922  1.0155
   15POPC  C214 1952   3.293   0.790   4.275 -0.1763  0.8059 -0.5027
   15POPC  H14R 1953   3.338   0.888   4.301  1.0930  0.6472 -2.0596
   15POPC  H14S 1954   3.283   0.721   4.362  0.6832 -1.1381 -1.9217
   15POPC  C215 1955   3.158   0.819   4.210 -0.3712  0.4763 -0.2482
   15POPC  H15R 1956   3.107   0.725   4.179 -0.9546  0.3251  1.1264
   15POPC  H15S 1957   3.181   0.873   4.116  1.1330  0.3054  0.0166
   15POPC  C216 1958   3.059   0.899   4.295 -0.1845  0.3515  0.0890
   15POPC  H16R 1959   2.975   0.925   4.226 -1.3535 -0.1345  1.3096
   15POPC  H16S 1960   3.119   0.990   4.318  0.1463 -0.3608  2.1467
   15POPC  C217 1961   3.001   0.835   4.421  0.7892 -0.4374  0.1421
   15POPC  H17R 1962   3.071   0.788   4.493 -0.0927 -1.3103  0.4467
   15POPC  H17S 1963   2.928   0.757   4.389  0.4371  0.8582 -2.3125
   15POPC  C218 1964   2.922   0.936   4.504  0.2807 -0.5611 -0.1900
   15POPC  H18R 1965   2.816   0.946   4.472  0.2447  0.5240  0.2577
   15POPC  H18S 1966   2.980   1.030   4.511  1.6622 -1.5712  2.2623
   15POPC  H18T 1967   2.907   0.883   4.600 -0.5435  1.5634  0.8872
   15POPC   C33 1968   3.879   7.886   5.353 -0.6983 -0.9687  0.1525
   15POPC   H3X 1969   3.884   0.035   5.344 -0.7241 -0.9523 -0.1658
   15POPC   H3Y 1970   3.774   7.856   5.337 -1.4693  0.9893  1.2792
   15POPC   C34 1971   3.955   7.830   5.234 -0.0406  0.0618  0.0782
   15POPC   H4X 1972   3.959   7.719   5.240 -2.2497 -0.0918 -0.9908
   15POPC   H4Y 1973   4.061   7.865   5.240 -0.1624  0.1974  1.5593
   15POPC   C35 1974   3.897   7.874   5.099  0.2285 -0.2187 -0.1319
   15POPC   H5X 1975   3.871   0.020   5.100  0.4038 -0.1389  1.1244
   15POPC   H5Y 1976   3.802   7.821   5.081 -1.3338  2.0534  1.1758
   15POPC   C36 1977   3.997   7.856   4.984  0.3172 -0.0564 -0.0803
   15POPC   H6X 1978   4.048   7.758   4.990 -2.3455 -1.5109 -0.4113
   15POPC   H6Y 1979   4.077   7.931   5.002  0.5081 -0.1456 -0.5706
   15POPC   C37 1980   3.938   7.879   4.845  0.1998  0.6095  0.0767
   15POPC   H7X 1981   3.920   0.024   4.822  1.2058  0.7298 -0.3787
   15POPC   H7Y 1982   3.849   7.814   4.842  2.2617 -2.2870 -0.5872
   15POPC   C38 1983   4.028   7.821   4.736  0.1050  0.2403  0.1967
   15POPC   H8X 1984   4.050   7.716   4.765 -2.1779 -0.8668 -1.8558
   15POPC   H8Y 1985   4.123   7.877   4.725  0.2766 -0.3852 -1.7033
   15POPC   C39 1986   3.964   7.814   4.597 -0.2570  0.0199  0.3731
   15POPC   H9X 1987   3.938   7.917   4.564 -2.2638 -0.3807  0.6622
   15POPC   H9Y 1988   3.877   7.747   4.612  0.2409 -0.3369  1.7727
   15POPC  C310 1989   4.049   7.732   4.499 -0.7378 -0.5235  0.4105
   15POPC  H10X 1990   4.040   7.629   4.539  1.1197 -0.2702  1.5437
   15POPC  H10Y 1991   4.154   7.768   4.504 -1.5684  2.5168 -2.5112
   15POPC  C311 1992   4.003   7.722   4.354  0.1192 -0.8102  0.1555
   15POPC  H11X 1993   3.915   7.655   4.366 -0.1261 -1.0607 -2.7784
   15POPC  H11Y 1994   4.086   7.669   4.303  0.5022  0.2024 -0.2931
   15POPC  C312 1995   3.974   7.863   4.302 -0.2275 -0.6674  0.7308
   15POPC  H12X 1996   4.062   7.930   4.302 -0.5492 -0.2306  1.7165
   15POPC  H12Y 1997   3.894   7.905   4.366 -2.0224 -2.5164 -0.2427
   15POPC  C313 1998   3.892   7.848   4.173  0.3420  0.6237  0.2102
   15POPC  H13X 1999   3.954   7.783   4.107  0.0500  0.6372 -0.0760
   15POPC  H13Y 2000   3.877   7.950   4.133  0.7060  0.4184 -0.4546
   15POPC  C314 2001   3.749   7.795   4.182  0.3620  0.4847 -0.2737
   15POPC  H14X 2002   3.677   7.880   4.179  0.2511  0.4527  0.9556
   15POPC  H14Y 2003   3.739   7.739   4.277  3.7790  1.2256  0.5744
   15POPC  C315 2004   3.729   7.705   4.060  0.1708  0.3150 -0.1184
   15POPC  H15X 2005   3.807   7.625   4.062 -0.4004 -0.2803 -1.6531
   15POPC  H15Y 2006   3.739   7.761   3.965 -1.8341 -0.9524 -1.1013
   15POPC  C316 2007   3.593   7.636   4.058  0.1691  0.3101  0.1471
   15POPC  H16X 2008   3.571   7.589   4.156  1.7805 -2.0703 -0.6137
   15POPC  H16Y 2009   3.597   7.556   3.981 -1.1860  0.2615  0.1131
   15POPC  H16Z 2010   3.506   7.699   4.029 -0.0221  0.9493  1.9894
   16POPC     N 2011   4.269   3.343   6.151  0.1373  0.7094 -0.0705
   16POPC   C12 2012   4.148   3.265   6.104  0.3590  0.3087  0.0237
   16POPC  H12A 2016   4.075   3.332   6.062  0.6247  1.7493  1.7962
   16POPC  H12B 2017   4.096   3.219   6.187  2.2274 -1.5045  0.2340
   16POPC   C13 2013   4.370   3.259   6.225 -0.5124 -0.3161 -0.3327
   16POPC  H13A 2018   4.336   3.235   6.324 -0.6062  1.2044  0.0187
   16POPC  H13B 2019   4.387   3.174   6.160  2.1749 -0.1943  0.1295
   16POPC  H13C 2020   4.460   3.319   6.220 -1.6697  1.4322 -0.9878
   16POPC   C14 2014   4.332   3.414   6.033 -0.0452 -0.1811 -0.7054
   16POPC  H14A 2021   4.376   3.344   5.964 -0.6203 -0.6981 -0.5589
   16POPC  H14B 2022   4.261   3.477   5.982  0.4752 -0.5322 -1.8673
   16POPC  H14C 2023   4.413   3.466   6.082  0.5667  0.4826 -2.4145
   16POPC   C15 2015   4.216   3.453   6.240 -0.3454  0.3010  0.1446
   16POPC  H15A 2024   4.303   3.510   6.269 -0.2401  0.3625 -0.2952
   16POPC  H15B 2025   4.159   3.404   6.318 -1.3637  1.4949  0.1689
   16POPC  H15C 2026   4.141   3.506   6.183 -0.7257 -0.1826  0.1867
   16POPC   C11 2027   4.165   3.159   5.995  0.4152  0.5081 -0.1626
   16POPC  H11A 2028   4.185   3.216   5.902 -0.5933 -0.4495 -0.9888
   16POPC  H11B 2029   4.067   3.107   5.992  0.3574  0.6707 -1.2512
   16POPC     P 2030   4.240   2.912   6.027  0.0242  0.1699  0.1335
   16POPC   O13 2031   4.119   2.879   6.105  0.2382 -0.3587  0.2408
   16POPC   O14 2032   4.359   2.836   6.073 -0.0871  0.0213  0.1753
   16POPC   O12 2033   4.273   3.069   6.022  0.1900  0.1151 -0.5676
   16POPC   O11 2034   4.217   2.885   5.871 -0.0875 -0.0420  0.1881
   16POPC    C1 2035   4.319   2.836   5.784 -0.3966  0.8052 -0.6488
   16POPC    HA 2036   4.270   2.790   5.695 -3.1143  3.8462 -0.8051
   16POPC    HB 2037   4.384   2.758   5.829 -1.2332  0.3555 -0.2150
   16POPC    C2 2038   4.426   2.942   5.750  0.5223  0.1161  0.0814
   16POPC    HS 2039   4.474   2.971   5.846  0.1148 -0.6017  0.5079
   16POPC   O21 2040   4.361   3.054   5.690  0.1886 -0.0474  0.1352
   16POPC   C21 2041   4.424   3.171   5.693 -0.4119  0.2808  0.1153
   16POPC   O22 2042   4.543   3.178   5.721 -0.2474 -0.2496 -0.4111
   16POPC   C22 2043   4.335   3.273   5.623 -0.2081  0.4867  0.1567
   16POPC   H2R 2044   4.329   3.361   5.689  1.7198  1.1772 -0.5674
   16POPC   H2S 2045   4.236   3.227   5.600  0.7110 -2.0564  1.0303
   16POPC    C3 2046   4.540   2.890   5.661  0.7287  0.4610  0.1436
   16POPC    HX 2047   4.556   2.788   5.702  0.6235  0.8704  1.2206
   16POPC    HY 2048   4.627   2.956   5.679 -0.3468  1.8100  0.4352
   16POPC   O31 2049   4.507   2.893   5.522  0.7437 -0.0880  0.1243
   16POPC   C31 2050   4.465   2.777   5.472  0.3597  0.1525 -0.1117
   16POPC   O32 2051   4.453   2.677   5.540  0.1546  0.4588  0.3048
   16POPC   C32 2052   4.423   2.794   5.327  0.5525  0.1436 -0.1692
   16POPC   H2X 2053   4.517   2.798   5.267 -1.2352  2.2266 -2.9767
   16POPC   H2Y 2054   4.366   2.889   5.316 -1.7952 -1.2706 -0.6259
   16POPC   C23 2055   4.400   3.341   5.502  0.4052  0.2337  0.3395
   16POPC   H3R 2056   4.419   3.248   5.444 -0.8156 -0.6335  1.3006
   16POPC   H3S 2057   4.501   3.382   5.525  0.4916  1.8383 -2.6340
   16POPC   C24 2058   4.315   3.451   5.439  0.4741 -0.0422 -0.2358
   16POPC   H4R 2059   4.292   3.523   5.521  2.4316 -0.0370  0.3244
   16POPC   H4S 2060   4.218   3.409   5.404  0.0760 -1.6903  2.6893
   16POPC   C25 2061   4.372   3.531   5.322  0.1210 -0.2156 -0.5258
   16POPC   H5R 2062   4.394   3.471   5.231 -1.7624 -0.6029 -0.7556
   16POPC   H5S 2063   4.472   3.568   5.352 -0.2841  2.9360 -2.7851
   16POPC   C26 2064   4.292   3.657   5.288  0.2882  0.0794  0.1692
   16POPC   H6R 2065   4.302   3.737   5.365  1.4938  0.5194 -0.4123
   16POPC   H6S 2066   4.189   3.618   5.288 -0.3491  1.7056  0.1217
   16POPC   C27 2067   4.309   3.713   5.146 -0.4044 -0.0721  0.0296
   16POPC   H7R 2068   4.219   3.771   5.114  0.3495  0.7154 -0.7052
   16POPC   H7S 2069   4.316   3.623   5.082 -1.4707 -1.8689  2.3928
   16POPC   C28 2070   4.418   3.821   5.144 -0.8877  0.4244  0.1826
   16POPC   H8R 2071   4.509   3.775   5.188 -2.6513 -0.7956  2.6699
   16POPC   H8S 2072   4.392   3.908   5.207  0.8794  0.6578  0.5853
   16POPC   C29 2073   4.465   3.860   5.006  0.2122 -0.0638  0.4177
   16POPC   H91 2074   4.528   3.778   4.969 -0.2680 -0.0435 -0.4499
   16POPC  C210 2075   4.451   3.976   4.941  0.4583 -0.1697  0.1790
   16POPC  H101 2076   4.487   3.995   4.838 -2.1766  1.6146 -0.4412
   16POPC  C211 2077   4.380   4.094   4.999  0.1677 -0.3941  0.2813
   16POPC  H11R 2078   4.449   4.180   5.012 -2.1133  1.3814  1.0535
   16POPC  H11S 2079   4.316   4.080   5.088  0.1793 -1.3885  0.1326
   16POPC  C212 2080   4.284   4.140   4.889  0.3480 -0.0201  0.2784
   16POPC  H12R 2081   4.222   4.053   4.858 -1.5769  1.1639  0.7253
   16POPC  H12S 2082   4.352   4.160   4.803  0.1945 -0.9242 -0.0604
   16POPC  C213 2083   4.205   4.268   4.916  0.3853 -0.0943  0.7440
   16POPC  H13R 2084   4.170   4.258   5.021 -0.9468  0.5603  0.3754
   16POPC  H13S 2085   4.109   4.255   4.860 -0.5267  0.1645  2.2199
   16POPC  C214 2086   4.269   4.402   4.882 -0.2598 -0.0606 -0.4045
   16POPC  H14R 2087   4.307   4.405   4.778  0.9791  1.5585  0.0546
   16POPC  H14S 2088   4.357   4.418   4.949 -0.8617  1.1208  0.1315
   16POPC  C215 2089   4.163   4.511   4.901  0.0565  0.1784  0.0370
   16POPC  H15R 2090   4.117   4.485   4.998 -0.6877 -1.3412 -0.6963
   16POPC  H15S 2091   4.092   4.499   4.816 -1.8846  0.7675  1.5539
   16POPC  C216 2092   4.237   4.644   4.911  0.4332 -0.0065 -0.2772
   16POPC  H16R 2093   4.317   4.631   4.988  0.0220 -1.3863 -0.0681
   16POPC  H16S 2094   4.175   4.726   4.953  0.0979  0.5060 -1.7367
   16POPC  C217 2095   4.301   4.701   4.784 -0.2396  0.3041 -0.4745
   16POPC  H17R 2096   4.216   4.699   4.712 -1.1907 -0.3839  0.6414
   16POPC  H17S 2097   4.386   4.647   4.737  0.2556 -0.0986  0.8654
   16POPC  C218 2098   4.336   4.849   4.798 -0.1002  0.2323 -0.0592
   16POPC  H18R 2099   4.261   4.890   4.870 -0.2184 -1.9004  1.0814
   16POPC  H18S 2100   4.346   4.899   4.699 -0.3972  1.3434  0.4600
   16POPC  H18T 2101   4.431   4.860   4.854  0.5162 -3.7301 -0.1706
   16POPC   C33 2102   4.341   2.672   5.283  0.3396 -0.0121  0.6536
   16POPC   H3X 2103   4.243   2.669   5.335  0.0124  1.5365  0.1565
   16POPC   H3Y 2104   4.409   2.586   5.301  1.5643  1.0692  1.2955
   16POPC   C34 2105   4.312   2.690   5.134 -0.1107 -0.2254  0.7152
   16POPC   H4X 2106   4.402   2.737   5.087 -0.4589 -0.8292 -0.5877
   16POPC   H4Y 2107   4.230   2.764   5.127  0.0410 -0.0330  0.9583
   16POPC   C35 2108   4.291   2.554   5.067 -0.0539  0.3104 -0.4094
   16POPC   H5X 2109   4.241   2.479   5.133  1.3131 -0.1905  0.0768
   16POPC   H5Y 2110   4.393   2.515   5.044 -0.1799 -1.2315  1.4958
   16POPC   C36 2111   4.209   2.577   4.940 -0.7923 -0.2750 -0.0457
   16POPC   H6X 2112   4.258   2.669   4.902  0.7747 -0.8114  0.6087
   16POPC   H6Y 2113   4.102   2.602   4.953 -0.6451  0.7778 -0.8142
   16POPC   C37 2114   4.220   2.464   4.837 -0.1838 -0.8468  0.6372
   16POPC   H7X 2115   4.159   2.379   4.873 -0.9233 -1.0413 -1.0419
   16POPC   H7Y 2116   4.325   2.437   4.811 -0.2529 -0.2996 -0.2393
   16POPC   C38 2117   4.138   2.498   4.713  0.5775  0.1343  0.3873
   16POPC   H8X 2118   4.032   2.528   4.731  0.8747  1.2794  0.2510
   16POPC   H8Y 2119   4.124   2.405   4.652  0.0789 -0.0154  0.7307
   16POPC   C39 2120   4.189   2.611   4.624  0.4805 -0.2405 -0.1529
   16POPC   H9X 2121   4.292   2.590   4.586  1.6130 -1.0399  3.1232
   16POPC   H9Y 2122   4.209   2.693   4.696 -2.6831 -0.5029  1.0988
   16POPC  C310 2123   4.100   2.668   4.514  0.1568  0.0345  0.2517
   16POPC  H10X 2124   4.157   2.739   4.451 -0.7335  0.6549  0.1324
   16POPC  H10Y 2125   4.019   2.733   4.554  1.0481  0.2804  1.6870
   16POPC  C311 2126   4.038   2.568   4.416  0.1687 -0.0385  0.3209
   16POPC  H11X 2127   3.954   2.520   4.471  1.2966 -1.3822  0.8972
   16POPC  H11Y 2128   4.110   2.492   4.379 -0.5116 -1.1747  1.2665
   16POPC  C312 2129   3.977   2.617   4.285  0.1342 -0.8384  0.0332
   16POPC  H12X 2130   3.976   2.554   4.193 -0.3321  0.3710 -0.8076
   16POPC  H12Y 2131   4.052   2.695   4.259 -2.1536  2.3779  2.6492
   16POPC  C313 2132   3.841   2.686   4.300  0.3628 -0.2597 -0.5226
   16POPC  H13X 2133   3.801   2.679   4.403 -0.3388 -1.3350 -0.8606
   16POPC  H13Y 2134   3.778   2.627   4.230  0.9644 -2.3521  0.6490
   16POPC  C314 2135   3.857   2.832   4.258  0.2358 -0.3435 -0.8662
   16POPC  H14X 2136   3.921   2.832   4.167  1.8081 -2.6921  0.1905
   16POPC  H14Y 2137   3.918   2.889   4.331 -0.2075 -1.8500  0.7245
   16POPC  C315 2138   3.726   2.905   4.227  0.4465  0.3530 -0.1499
   16POPC  H15X 2139   3.687   2.843   4.143  1.5284  0.5898 -0.8415
   16POPC  H15Y 2140   3.757   3.004   4.188 -0.5988  1.0944  0.8569
   16POPC  C316 2141   3.636   2.921   4.349  0.6634  0.2304  0.0268
   16POPC  H16X 2142   3.696   2.960   4.433 -0.9887  0.7162  1.0168
   16POPC  H16Y 2143   3.593   2.821   4.373 -0.8165  0.3291 -2.0335
   16POPC  H16Z 2144   3.548   2.984   4.324 -1.9096 -3.6315 -1.1534
   17POPC     N 2145   7.705   3.849   6.257 -0.2112  0.1856 -0.3029
   17POPC   C12 2146   7.686   3.973   6.341 -0.4692  0.1862 -0.3615
   17POPC  H12A 2150   7.658   3.932   6.437 -0.9966 -0.4724 -0.7930
   17POPC  H12B 2151   7.609   4.025   6.287  1.6770  2.8753 -0.9585
   17POPC   C13 2147   7.824   3.771   6.308 -0.3627  0.2104  0.0854
   17POPC  H13A 2152   7.919   3.822   6.308 -1.2183  1.9153  2.2926
   17POPC  H13B 2153   7.802   3.739   6.409  0.5993  2.8939  1.1884
   17POPC  H13C 2154   7.828   3.684   6.245 -0.5379  1.2285 -1.3510
   17POPC   C14 2148   7.594   3.747   6.263  0.4287 -0.5076 -0.2602
   17POPC  H14A 2155   7.507   3.790   6.217 -0.9323 -3.1456 -0.2425
   17POPC  H14B 2156   7.619   3.667   6.195 -0.2324  2.0184 -3.5622
   17POPC  H14C 2157   7.565   3.719   6.364 -2.3842  0.0130 -0.8863
   17POPC   C15 2149   7.733   3.879   6.111  0.5779 -0.0545 -0.2055
   17POPC  H15A 2158   7.794   3.968   6.107 -2.6297  2.2055 -0.4279
   17POPC  H15B 2159   7.643   3.922   6.068  0.0353  0.3382  1.2798
   17POPC  H15C 2160   7.762   3.788   6.061  0.2604  0.0863 -0.6503
   17POPC   C11 2161   7.801   4.066   6.381 -0.3542  0.0516 -0.3727
   17POPC  H11A 2162   7.881   3.998   6.415 -0.2925 -1.0647 -2.6517
   17POPC  H11B 2163   7.758   4.126   6.465  1.4854 -1.0494  1.3786
   17POPC     P 2164   7.951   4.257   6.319 -0.2202 -0.3377  0.0446
   17POPC   O13 2165   0.049   4.213   6.447  0.3241 -0.2097 -0.1457
   17POPC   O14 2166   7.889   4.392   6.317  0.6364  0.0543 -0.3318
   17POPC   O12 2167   7.850   4.143   6.271 -0.4590  0.0648 -0.4105
   17POPC   O11 2168   0.106   4.252   6.210 -0.0021  0.2928  0.2014
   17POPC    C1 2169   0.177   4.141   6.153 -0.4669  0.2860 -0.3679
   17POPC    HA 2170   0.166   4.058   6.226 -1.6042 -0.5197 -1.4374
   17POPC    HB 2171   0.285   4.162   6.137 -0.5003  0.6138 -0.1818
   17POPC    C2 2172   0.124   4.095   6.017 -0.4513 -0.3616 -0.1554
   17POPC    HS 2173   0.189   4.136   5.937 -0.5189  0.4574  0.2107
   17POPC   O21 2174   7.953   4.147   6.012 -0.3513  0.0313  0.1944
   17POPC   C21 2175   7.910   4.178   5.889  0.3059 -0.1725 -0.0890
   17POPC   O22 2176   0.016   4.179   5.788  0.2984 -0.8114 -0.1307
   17POPC   C22 2177   7.762   4.211   5.898  0.4279  0.4107 -0.1870
   17POPC   H2R 2178   7.749   4.306   5.953  0.6716  0.1471  0.3282
   17POPC   H2S 2179   7.708   4.127   5.948  2.2295 -2.2820 -2.5916
   17POPC    C3 2180   0.124   3.942   6.001 -0.2297 -0.3530 -0.2299
   17POPC    HX 2181   0.080   3.893   6.091 -0.1040 -1.0823 -0.5566
   17POPC    HY 2182   0.220   3.886   5.999  0.6474  0.8231  3.6729
   17POPC   O31 2183   0.045   3.908   5.887 -0.1699 -0.1878 -0.3209
   17POPC   C31 2184   0.123   3.887   5.780  0.2014  0.1832 -0.1233
   17POPC   O32 2185   0.242   3.906   5.764  0.4321 -0.7827  0.4487
   17POPC   C32 2186   0.031   3.816   5.682  0.1561  0.5925 -0.3775
   17POPC   H2X 2187   7.897   3.867   5.660  0.3884  1.1922 -0.2127
   17POPC   H2Y 2188   0.013   3.717   5.728 -0.7345  0.2801 -1.3812
   17POPC   C23 2189   7.702   4.226   5.758  0.3493  0.3093 -0.1662
   17POPC   H3R 2190   7.751   4.294   5.685  0.8644 -0.5735 -0.6552
   17POPC   H3S 2191   7.599   4.267   5.765  0.6044  0.7977  0.7986
   17POPC   C24 2192   7.690   4.090   5.689  0.3683 -0.0192  0.4731
   17POPC   H4R 2193   7.646   4.020   5.762  0.7857 -2.2863 -1.3617
   17POPC   H4S 2194   7.791   4.058   5.655  0.6923  1.6413 -0.2019
   17POPC   C25 2195   7.614   4.095   5.556  0.0210  0.0425  0.6756
   17POPC   H5R 2196   7.658   4.182   5.502  0.2856  0.6639  1.8562
   17POPC   H5S 2197   7.505   4.113   5.570 -0.3099 -0.6972 -0.8962
   17POPC   C26 2198   7.634   3.970   5.471 -0.3723  0.2947  0.2138
   17POPC   H6R 2199   7.636   3.883   5.540 -1.2026 -2.0164 -2.5654
   17POPC   H6S 2200   7.728   3.981   5.413 -0.9101  1.7500 -0.4248
   17POPC   C27 2201   7.521   3.937   5.373 -0.4039  0.2071  0.2819
   17POPC   H7R 2202   7.508   4.027   5.309  1.1099  0.8426  0.8385
   17POPC   H7S 2203   7.434   3.910   5.437 -2.5940 -0.1815 -2.7002
   17POPC   C28 2204   7.556   3.828   5.271 -0.1253  0.3685  0.2028
   17POPC   H8R 2205   7.564   3.728   5.318 -0.0677  1.0579  1.7085
   17POPC   H8S 2206   7.653   3.844   5.219  0.0059 -1.6657 -0.2038
   17POPC   C29 2207   7.445   3.812   5.170  0.7630 -0.0235 -0.7155
   17POPC   H91 2208   7.377   3.739   5.216 -0.5541  1.7026  0.1127
   17POPC  C210 2209   7.431   3.862   5.047  0.1548  0.3079 -0.5094
   17POPC  H101 2210   7.341   3.831   4.992  0.2271  1.8238 -1.5228
   17POPC  C211 2211   7.517   3.969   4.986  0.7283  0.0466 -0.1660
   17POPC  H11R 2212   7.568   3.934   4.894  0.5011  0.0098 -0.2797
   17POPC  H11S 2213   7.606   3.993   5.047  0.8754  1.7563 -1.0192
   17POPC  C212 2214   7.441   4.099   4.960  0.2195 -0.3272 -0.5684
   17POPC  H12R 2215   7.515   4.182   4.952 -2.0701  1.8061 -0.4802
   17POPC  H12S 2216   7.372   4.124   5.044 -2.8629 -1.0222 -2.7876
   17POPC  C213 2217   7.353   4.092   4.835 -0.8947 -0.3488  0.2015
   17POPC  H13R 2218   7.281   4.011   4.855  0.2073 -1.8682 -1.7785
   17POPC  H13S 2219   7.405   4.066   4.740 -1.3195 -1.2898  0.2174
   17POPC  C214 2220   7.289   4.229   4.812  0.1463  0.1359  0.1261
   17POPC  H14R 2221   7.370   4.300   4.786 -0.7593  0.6516 -1.3729
   17POPC  H14S 2222   7.257   4.270   4.910  2.1024 -2.6072  1.9899
   17POPC  C215 2223   7.182   4.224   4.702  0.4516 -0.1258 -0.1578
   17POPC  H15R 2224   7.094   4.164   4.733  0.4615  0.2290  0.5829
   17POPC  H15S 2225   7.236   4.182   4.614  1.0897  3.3074 -1.4889
   17POPC  C216 2226   7.138   4.364   4.661 -0.8620 -0.3588  0.4341
   17POPC  H16R 2227   7.230   4.425   4.647 -0.0310 -1.5251  0.7465
   17POPC  H16S 2228   7.066   4.412   4.731 -2.0242  0.3928 -1.2626
   17POPC  C217 2229   7.075   4.362   4.522 -0.2180  0.3848  0.1271
   17POPC  H17R 2230   7.000   4.445   4.524 -0.3113  0.2938  0.5439
   17POPC  H17S 2231   7.021   4.267   4.503 -1.8352  1.7586 -2.4666
   17POPC  C218 2232   7.171   4.399   4.409 -0.0324 -0.0449  0.1462
   17POPC  H18R 2233   7.190   4.508   4.407 -1.4185  0.2506  1.6546
   17POPC  H18S 2234   7.123   4.368   4.314  0.4310 -1.1740  0.2664
   17POPC  H18T 2235   7.269   4.348   4.424 -0.1395  0.5492  3.2989
   17POPC   C33 2236   0.105   3.796   5.549  0.1402 -0.0797 -0.2881
   17POPC   H3X 2237   0.207   3.756   5.571  0.4101  0.4792 -0.5144
   17POPC   H3Y 2238   0.117   3.896   5.502  0.7551 -1.1342 -2.4097
   17POPC   C34 2239   0.035   3.706   5.448 -0.4690  0.2608 -0.1676
   17POPC   H4X 2240   7.894   3.747   5.431  0.8452  3.0142 -2.2279
   17POPC   H4Y 2241   0.025   3.599   5.474  2.4723 -0.3436 -1.3939
   17POPC   C35 2242   0.100   3.718   5.310 -0.1291  0.8931  0.0435
   17POPC   H5X 2243   0.199   3.666   5.311 -1.1828 -1.2348 -1.5834
   17POPC   H5Y 2244   0.118   3.823   5.279  0.2374  0.2077 -2.1096
   17POPC   C36 2245   0.003   3.658   5.208  0.1219  0.4021  0.0902
   17POPC   H6X 2246   7.866   3.708   5.202 -0.2696  0.0480  2.3596
   17POPC   H6Y 2247   7.939   3.552   5.231  0.3623 -0.3484 -2.9360
   17POPC   C37 2248   0.078   3.666   5.076  0.0219 -0.0967  0.0023
   17POPC   H7X 2249   0.168   3.600   5.081  1.9831  2.1782 -3.2329
   17POPC   H7Y 2250   0.117   3.769   5.061  3.3627 -1.4399 -1.1923
   17POPC   C38 2251   7.952   3.647   4.952 -0.2510  0.0236  0.1472
   17POPC   H8X 2252   7.881   3.567   4.982  2.3055 -3.0588 -1.6066
   17POPC   H8Y 2253   0.057   3.603   4.875 -1.1037 -0.9560 -0.0945
   17POPC   C39 2254   7.888   3.771   4.889  0.2018 -0.0881 -0.5349
   17POPC   H9X 2255   7.837   3.829   4.969 -1.1493 -0.7751 -0.8884
   17POPC   H9Y 2256   7.806   3.738   4.822 -1.0524 -0.6204  1.2273
   17POPC  C310 2257   0.025   3.857   4.810  0.0802  0.0731 -0.5647
   17POPC  H10X 2258   0.047   3.794   4.721 -0.2451 -1.6540  0.5539
   17POPC  H10Y 2259   0.116   3.903   4.855  0.6808 -0.0978 -1.5940
   17POPC  C311 2260   7.902   3.975   4.764 -0.1184  0.2805  0.2469
   17POPC  H11X 2261   7.911   4.051   4.844  1.6460 -1.8403  2.1311
   17POPC  H11Y 2262   7.798   3.940   4.750 -0.2644  1.6060 -2.3070
   17POPC  C312 2263   7.954   4.043   4.637 -0.1472  0.2307  0.2089
   17POPC  H12X 2264   0.013   3.966   4.560 -5.2624 -1.6035  0.4650
   17POPC  H12Y 2265   0.087   4.097   4.659  1.7948 -2.2411 -1.6150
   17POPC  C313 2266   7.843   4.118   4.564 -0.4202  0.0694  0.4589
   17POPC  H13X 2267   7.895   4.202   4.513 -1.4789  1.0453  0.9499
   17POPC  H13Y 2268   7.772   4.149   4.644 -2.5343 -1.6368 -0.6876
   17POPC  C314 2269   7.761   4.044   4.458  0.7023  0.1921 -0.5080
   17POPC  H14X 2270   7.698   3.963   4.500 -1.1053  1.5440 -0.5407
   17POPC  H14Y 2271   7.823   3.993   4.382  0.5310 -1.3575  0.3710
   17POPC  C315 2272   7.669   4.141   4.382  0.1519  0.1317  0.0766
   17POPC  H15X 2273   7.660   4.104   4.278 -1.0878  2.4773 -0.6811
   17POPC  H15Y 2274   7.717   4.241   4.378 -0.2834  0.4635  2.1621
   17POPC  C316 2275   7.535   4.166   4.451  0.4860  0.2069  0.7034
   17POPC  H16X 2276   7.453   4.200   4.385  0.0983 -0.7442  0.6850
   17POPC  H16Y 2277   7.543   4.240   4.533  3.5574  1.4998 -0.6794
   17POPC  H16Z 2278   7.506   4.064   4.486  2.9599 -1.0615 -0.7519
   18POPC     N 2279   5.153   1.863   6.425  0.2271  0.2455 -0.1737
   18POPC   C12 2280   5.104   1.948   6.309 -0.4162  0.2555  0.1008
   18POPC  H12A 2284   5.113   2.052   6.337  0.5853 -0.0538  1.0045
   18POPC  H12B 2285   5.003   1.924   6.282 -0.0109 -0.8384 -0.4944
   18POPC   C13 2281   5.166   1.720   6.378  0.0061  0.1464  0.0632
   18POPC  H13A 2286   5.236   1.670   6.444 -2.2497 -1.4462  1.2987
   18POPC  H13B 2287   5.075   1.667   6.357  0.8829 -0.4404 -2.4736
   18POPC  H13C 2288   5.220   1.730   6.285 -0.5874 -0.8954 -0.3931
   18POPC   C14 2282   5.291   1.903   6.470  0.3065  0.0277 -0.2212
   18POPC  H14A 2289   5.371   1.864   6.409  1.0088  0.1715  0.6033
   18POPC  H14B 2290   5.291   2.010   6.455 -3.3869  0.2217  0.5986
   18POPC  H14C 2291   5.314   1.878   6.573  3.5512 -1.0246 -1.1534
   18POPC   C15 2283   5.045   1.868   6.531  0.0981  0.1480 -0.2999
   18POPC  H15A 2292   4.952   1.857   6.478 -1.1147  4.4531  0.7973
   18POPC  H15B 2293   5.045   1.958   6.591 -1.9745  1.6635 -2.5060
   18POPC  H15C 2294   5.058   1.784   6.598  2.0723  2.3590  2.2136
   18POPC   C11 2295   5.184   1.930   6.180 -0.1936 -0.4356  0.3290
   18POPC  H11A 2296   5.292   1.951   6.194 -0.2162  1.1980 -1.6957
   18POPC  H11B 2297   5.166   2.021   6.118  1.8642 -1.0095 -1.1582
   18POPC     P 2298   5.042   1.821   5.992  0.0859  0.2212  0.3495
   18POPC   O13 2299   4.932   1.898   6.054 -0.1111  0.0164  0.2536
   18POPC   O14 2300   4.994   1.690   5.943 -0.2215  0.6520 -0.5094
   18POPC   O12 2301   5.153   1.811   6.107 -0.0119 -0.5164  0.3838
   18POPC   O11 2302   5.111   1.901   5.872 -0.0156  0.3768  0.3953
   18POPC    C1 2303   5.055   2.030   5.845  0.0783  0.4222  0.4182
   18POPC    HA 2304   5.133   2.087   5.788  0.8107 -2.5096 -1.6280
   18POPC    HB 2305   5.040   2.095   5.933  0.3489  1.2943 -0.1672
   18POPC    C2 2306   4.930   2.024   5.755  0.2483 -0.0582  0.2104
   18POPC    HS 2307   4.845   1.993   5.819 -0.9306 -2.1477 -2.2949
   18POPC   O21 2308   4.946   1.940   5.641 -0.2204  0.1387 -0.0012
   18POPC   C21 2309   4.890   1.819   5.641  0.1829 -0.0480  0.0883
   18POPC   O22 2310   4.812   1.771   5.721 -0.1442  0.3303 -0.0056
   18POPC   C22 2311   4.936   1.741   5.518 -0.3460  0.5840 -0.5102
   18POPC   H2R 2312   5.041   1.707   5.532 -0.5201  0.3029  0.1172
   18POPC   H2S 2313   4.943   1.807   5.429 -0.4754  0.9779 -0.2281
   18POPC    C3 2314   4.893   2.166   5.711 -0.3516 -0.0724  0.6569
   18POPC    HX 2315   4.992   2.210   5.686 -0.7404  0.1606 -0.5029
   18POPC    HY 2316   4.845   2.227   5.790 -2.5763 -0.5933 -0.2650
   18POPC   O31 2317   4.812   2.172   5.593 -0.0398 -0.4166  0.4238
   18POPC   C31 2318   4.684   2.140   5.618 -0.2398  0.3568  0.4078
   18POPC   O32 2319   4.637   2.122   5.728  0.3009  0.3903  0.6464
   18POPC   C32 2320   4.600   2.156   5.492  0.0473  0.0423  0.1725
   18POPC   H2X 2321   4.611   2.263   5.462 -1.9219  0.1989 -0.0579
   18POPC   H2Y 2322   4.498   2.132   5.528 -0.1807 -0.3435 -0.7116
   18POPC   C23 2323   4.851   1.618   5.485  0.2323  0.1273 -0.3157
   18POPC   H3R 2324   4.744   1.647   5.474  1.0278  1.8953 -4.3578
   18POPC   H3S 2325   4.857   1.543   5.566  2.1926  2.0123  1.3606
   18POPC   C24 2326   4.893   1.557   5.352  0.0567 -0.1420 -0.2458
   18POPC   H4R 2327   4.937   1.626   5.277 -0.1133  2.5080  2.0254
   18POPC   H4S 2328   4.803   1.522   5.296 -0.6336 -1.6912  1.7596
   18POPC   C25 2329   4.975   1.428   5.358 -0.4251 -0.4206  0.3912
   18POPC   H5R 2330   4.934   1.357   5.433 -0.5790  0.0055  0.7150
   18POPC   H5S 2331   5.072   1.459   5.402 -0.7225  0.3353  0.5225
   18POPC   C26 2332   5.011   1.373   5.220 -0.2773  0.0297  0.2504
   18POPC   H6R 2333   4.925   1.367   5.150  0.3337 -2.9612 -0.3152
   18POPC   H6S 2334   5.056   1.272   5.228 -0.5374 -0.1731 -0.7493
   18POPC   C27 2335   5.113   1.464   5.152 -0.1729 -0.2370  0.0502
   18POPC   H7R 2336   5.186   1.508   5.223 -1.7311  1.1874  0.7671
   18POPC   H7S 2337   5.048   1.550   5.124 -1.2683  0.1298  3.5566
   18POPC   C28 2338   5.202   1.396   5.047  0.2956 -0.1771  0.4057
   18POPC   H8R 2339   5.244   1.306   5.098 -0.8154 -1.0941 -0.2621
   18POPC   H8S 2340   5.297   1.451   5.033  0.5441 -0.8175 -0.5080
   18POPC   C29 2341   5.127   1.353   4.924  0.4962  0.0408  0.2081
   18POPC   H91 2342   5.017   1.360   4.922  0.1583 -3.4705  2.2824
   18POPC  C210 2343   5.189   1.309   4.814 -0.1601 -0.0430 -0.1322
   18POPC  H101 2344   5.128   1.281   4.726  0.6415 -0.8070 -0.4508
   18POPC  C211 2345   5.338   1.298   4.796 -0.1162 -0.1873  0.3149
   18POPC  H11R 2346   5.401   1.366   4.856 -2.5505  0.9168  1.7107
   18POPC  H11S 2347   5.351   1.328   4.690  1.2666  3.0364  1.3359
   18POPC  C212 2348   5.392   1.155   4.805  0.0239 -0.1466  0.1196
   18POPC  H12R 2349   5.499   1.155   4.777 -0.1777 -1.5452 -0.6598
   18POPC  H12S 2350   5.346   1.076   4.743 -0.9514 -0.1003  0.7758
   18POPC  C213 2351   5.374   1.100   4.946 -0.5922 -0.1926  0.0245
   18POPC  H13R 2352   5.264   1.090   4.955 -0.6912 -0.4838 -1.3924
   18POPC  H13S 2353   5.411   1.177   5.018  0.6573 -0.9770  0.2470
   18POPC  C214 2354   5.444   0.966   4.972 -0.2608 -0.2262 -1.0457
   18POPC  H14R 2355   5.541   0.959   4.918 -0.0062 -0.8746 -0.5040
   18POPC  H14S 2356   5.389   0.883   4.921  0.8235 -1.7985  0.2948
   18POPC  C215 2357   5.458   0.924   5.118 -0.3397  0.1538 -0.9287
   18POPC  H15R 2358   5.514   0.994   5.184 -0.5751 -0.8927  0.4006
   18POPC  H15S 2359   5.519   0.831   5.107  1.0160  1.0642 -1.1703
   18POPC  C216 2360   5.341   0.894   5.212  0.1433 -0.1685 -0.4214
   18POPC  H16R 2361   5.272   0.830   5.153 -2.1218  0.0975  1.8852
   18POPC  H16S 2362   5.298   0.996   5.227 -0.6419 -1.1005  4.1367
   18POPC  C217 2363   5.374   0.827   5.345 -0.4804  0.3996  0.0253
   18POPC  H17R 2364   5.435   0.901   5.402  0.9460 -1.7459  1.3560
   18POPC  H17S 2365   5.437   0.740   5.315 -3.1180 -0.2903 -3.9415
   18POPC  C218 2366   5.248   0.785   5.420 -0.0495  0.4724  0.7982
   18POPC  H18R 2367   5.175   0.868   5.426  0.9287  1.5908 -1.9506
   18POPC  H18S 2368   5.274   0.733   5.515  2.4446 -0.0728 -0.1525
   18POPC  H18T 2369   5.198   0.720   5.345  1.1178  1.0881 -0.5488
   18POPC   C33 2370   4.637   2.063   5.376 -0.0654 -0.0645  0.2232
   18POPC   H3X 2371   4.653   1.964   5.424  0.7296  0.7366  1.6304
   18POPC   H3Y 2372   4.737   2.086   5.334 -1.1363  0.5643 -2.0375
   18POPC   C34 2373   4.542   2.036   5.259  0.7439 -0.2503 -0.3934
   18POPC   H4X 2374   4.440   2.042   5.303  0.5202 -1.2212 -0.7514
   18POPC   H4Y 2375   4.562   1.929   5.234 -1.3402 -0.9091  0.5920
   18POPC   C35 2376   4.561   2.126   5.138  1.0516 -0.0256 -0.1780
   18POPC   H5X 2377   4.661   2.116   5.090  0.7692 -0.5594 -0.6654
   18POPC   H5Y 2378   4.549   2.233   5.166 -0.3829 -0.1072 -0.4737
   18POPC   C36 2379   4.463   2.101   5.023  0.0569 -0.0869  0.6813
   18POPC   H6X 2380   4.483   1.999   4.983  0.2467  0.5202 -0.8107
   18POPC   H6Y 2381   4.481   2.167   4.936  1.0158 -1.3148 -0.0739
   18POPC   C37 2382   4.319   2.084   5.070 -0.1789  0.9816  0.3451
   18POPC   H7X 2383   4.298   2.169   5.139 -1.4871 -0.0411  1.2400
   18POPC   H7Y 2384   4.309   1.987   5.122  1.1993  0.6321 -0.0256
   18POPC   C38 2385   4.215   2.091   4.958 -0.1099 -0.6325  0.1736
   18POPC   H8X 2386   4.231   2.004   4.891 -1.2021 -1.6395  1.1882
   18POPC   H8Y 2387   4.233   2.186   4.903  3.5709 -1.9281 -1.0172
   18POPC   C39 2388   4.066   2.087   4.993 -0.2251  0.2645 -0.2041
   18POPC   H9X 2389   4.037   2.179   5.049 -0.0776  0.9243 -1.2004
   18POPC   H9Y 2390   4.056   1.997   5.057  1.8197 -0.3769 -0.7513
   18POPC  C310 2391   3.976   2.069   4.871 -0.9934 -0.0105  0.4022
   18POPC  H10X 2392   3.987   2.160   4.809 -0.0795  0.6327  1.4964
   18POPC  H10Y 2393   3.869   2.078   4.900 -1.2088 -0.6247 -0.1870
   18POPC  C311 2394   3.994   1.934   4.802 -0.3557  0.3693 -0.1794
   18POPC  H11X 2395   4.007   1.844   4.866 -1.2626  1.2612  1.2958
   18POPC  H11Y 2396   4.082   1.935   4.735 -0.0914 -1.3699  0.1008
   18POPC  C312 2397   3.868   1.903   4.719 -0.1256  0.2693 -0.4925
   18POPC  H12X 2398   3.868   1.970   4.630  0.9724  0.5245 -0.3126
   18POPC  H12Y 2399   3.781   1.927   4.783  0.1631 -0.0428  0.0235
   18POPC  C313 2400   3.860   1.760   4.667  0.6343  0.0768 -0.0945
   18POPC  H13X 2401   3.844   1.696   4.757 -1.6279  1.9994  0.9359
   18POPC  H13Y 2402   3.956   1.733   4.618 -0.0799  0.1205 -1.5218
   18POPC  C314 2403   3.744   1.749   4.568  0.2048 -0.1984  0.4336
   18POPC  H14X 2404   3.751   1.814   4.479  0.0149  4.5627  3.7082
   18POPC  H14Y 2405   3.645   1.777   4.611 -0.5432 -1.1441 -0.6363
   18POPC  C315 2406   3.725   1.608   4.511  0.2929  0.1325 -0.4222
   18POPC  H15X 2407   3.623   1.598   4.468 -0.2676 -0.8069  1.1142
   18POPC  H15Y 2408   3.721   1.537   4.596  0.3478 -1.6212 -1.8558
   18POPC  C316 2409   3.823   1.562   4.404  0.4337  0.3021 -0.3669
   18POPC  H16X 2410   3.929   1.563   4.438  0.2387  0.9073  0.2238
   18POPC  H16Y 2411   3.811   1.625   4.313 -1.5448 -0.7493 -0.8652
   18POPC  H16Z 2412   3.798   1.455   4.387  2.5399  0.3162 -4.0449
   19POPC     N 2413   4.959   4.336   6.748  0.0382  0.4934  0.5102
   19POPC   C12 2414   4.924   4.189   6.762  0.2620  0.4067  0.1455
   19POPC  H12A 2418   4.819   4.172   6.745  0.4105  0.1289 -0.5085
   19POPC  H12B 2419   4.930   4.163   6.866  0.2558  3.2574  0.9135
   19POPC   C13 2415   4.955   4.384   6.606 -0.2901 -0.6299  0.1319
   19POPC  H13A 2420   4.852   4.395   6.576 -0.7281 -2.0360  1.0746
   19POPC  H13B 2421   4.996   4.484   6.599 -0.8182 -0.5102 -1.6056
   19POPC  H13C 2422   5.016   4.316   6.548 -0.6950 -1.0420  0.1853
   19POPC   C14 2416   4.855   4.407   6.833 -0.4603  0.4645 -0.0716
   19POPC  H14A 2423   4.842   4.345   6.920  0.8688  0.5151  0.1782
   19POPC  H14B 2424   4.885   4.506   6.861 -3.1994  1.2047  0.3544
   19POPC  H14C 2425   4.762   4.391   6.781 -0.4811 -2.2919  0.7011
   19POPC   C15 2417   5.095   4.358   6.810  0.2720  0.3191  0.0603
   19POPC  H15A 2426   5.116   4.463   6.824 -0.0048  0.3074  0.5812
   19POPC  H15B 2427   5.170   4.317   6.745 -0.3326  0.6738 -0.8669
   19POPC  H15C 2428   5.102   4.313   6.908  0.4669  1.4057  0.5468
   19POPC   C11 2429   5.006   4.081   6.692 -0.4360 -0.0610  0.0476
   19POPC  H11A 2430   4.961   3.984   6.724 -0.1130 -0.3893 -0.4891
   19POPC  H11B 2431   5.112   4.082   6.725 -1.2554 -0.5480  2.7708
   19POPC     P 2432   4.966   3.976   6.453 -0.0193 -0.1667  0.0298
   19POPC   O13 2433   4.831   3.923   6.484  0.1234 -0.2249  0.5489
   19POPC   O14 2434   5.078   3.880   6.471 -0.1874 -0.2885  0.4369
   19POPC   O12 2435   4.996   4.099   6.550  1.0709 -0.3283 -0.0986
   19POPC   O11 2436   4.966   4.038   6.306 -0.3069 -0.3708 -0.0574
   19POPC    C1 2437   5.053   4.150   6.286 -0.6669 -0.0590  0.1113
   19POPC    HA 2438   5.122   4.151   6.374 -0.4395 -0.0764 -0.0667
   19POPC    HB 2439   4.995   4.244   6.298  0.1401  0.4359  0.1911
   19POPC    C2 2440   5.123   4.138   6.150 -0.1616 -0.4640  0.4034
   19POPC    HS 2441   5.186   4.227   6.130 -1.0547  0.2544  0.7254
   19POPC   O21 2442   5.028   4.103   6.048  0.3791  0.1581 -0.3213
   19POPC   C21 2443   4.969   4.212   6.000 -0.0800  0.1465  0.2091
   19POPC   O22 2444   4.976   4.326   6.044 -0.1111  0.2785 -0.1265
   19POPC   C22 2445   4.877   4.160   5.891  0.1232 -0.0028  0.1081
   19POPC   H2R 2446   4.776   4.207   5.895 -1.7047 -3.8961  2.6819
   19POPC   H2S 2447   4.870   4.049   5.891 -0.2940  0.0194 -0.9644
   19POPC    C3 2448   5.218   4.017   6.146  0.3105 -0.1096  0.8531
   19POPC    HX 2449   5.159   3.928   6.179  0.6827 -2.5760 -4.6624
   19POPC    HY 2450   5.292   4.031   6.228  0.3084  1.6744  0.5644
   19POPC   O31 2451   5.281   4.004   6.019 -0.6738  0.3737  0.3063
   19POPC   C31 2452   5.234   3.914   5.933  0.4786 -0.3230  0.3833
   19POPC   O32 2453   5.134   3.846   5.949 -0.0174  0.3611  0.2566
   19POPC   C32 2454   5.317   3.917   5.806  0.1461 -1.0171  0.1434
   19POPC   H2X 2455   5.414   3.863   5.820  1.3759  0.8623 -0.8329
   19POPC   H2Y 2456   5.345   4.020   5.773 -2.6579  0.8191  3.2315
   19POPC   C23 2457   4.933   4.188   5.752 -0.3947  0.2846 -0.0440
   19POPC   H3R 2458   5.036   4.148   5.746 -0.0288  1.0673  0.8139
   19POPC   H3S 2459   4.962   4.294   5.736  2.3821 -0.2556  1.0745
   19POPC   C24 2460   4.840   4.141   5.640 -0.6052  0.4903  0.0420
   19POPC   H4R 2461   4.759   4.214   5.621 -1.1874 -0.2349 -0.3401
   19POPC   H4S 2462   4.790   4.043   5.657 -0.4880  0.3877 -0.1995
   19POPC   C25 2463   4.913   4.122   5.506 -0.0274 -0.2328  0.4514
   19POPC   H5R 2464   4.992   4.045   5.501 -0.1958 -0.3829  0.0798
   19POPC   H5S 2465   4.953   4.224   5.489 -0.4166 -0.0716  0.5033
   19POPC   C26 2466   4.821   4.102   5.385 -0.0203  0.2180  0.3685
   19POPC   H6R 2467   4.733   4.170   5.387 -0.0404  0.1737  2.2115
   19POPC   H6S 2468   4.781   3.998   5.383  0.9932 -0.2300  1.7670
   19POPC   C27 2469   4.888   4.118   5.248  0.0054 -0.2581  0.3257
   19POPC   H7R 2470   4.979   4.054   5.256 -1.1293 -1.8586  0.7322
   19POPC   H7S 2471   4.924   4.221   5.231  1.6493 -0.8875 -0.1521
   19POPC   C28 2472   4.804   4.064   5.133 -0.2901  0.2147  0.3208
   19POPC   H8R 2473   4.706   4.117   5.130 -0.0571  0.7252  1.6446
   19POPC   H8S 2474   4.784   3.957   5.156  1.6998 -0.4087 -0.7021
   19POPC   C29 2475   4.876   4.081   5.002 -0.1850 -0.4275  0.2922
   19POPC   H91 2476   4.927   4.178   4.998  2.1620 -1.6438 -0.0375
   19POPC  C210 2477   4.885   4.000   4.896  0.3917 -0.4064  0.3254
   19POPC  H101 2478   4.936   4.040   4.807 -1.0940  1.7611  0.4101
   19POPC  C211 2479   4.818   3.868   4.868  0.1361 -0.1452 -0.3139
   19POPC  H11R 2480   4.757   3.836   4.955  0.4496 -0.0339 -0.0473
   19POPC  H11S 2481   4.901   3.794   4.862  0.2571 -0.0150 -0.2665
   19POPC  C212 2482   4.749   3.871   4.732  0.1724  0.2323 -0.3249
   19POPC  H12R 2483   4.815   3.901   4.647 -1.1236  0.9620 -1.0893
   19POPC  H12S 2484   4.672   3.951   4.740 -0.0841 -0.0754  0.2825
   19POPC  C213 2485   4.688   3.738   4.689 -0.0841  0.2530 -0.0279
   19POPC  H13R 2486   4.616   3.726   4.772  2.4034 -0.7587  2.0328
   19POPC  H13S 2487   4.762   3.655   4.686  0.6843  0.9080  0.4983
   19POPC  C214 2488   4.613   3.742   4.555  0.0607 -0.0305 -0.1169
   19POPC  H14R 2489   4.696   3.731   4.482 -1.7102  1.7444 -2.4567
   19POPC  H14S 2490   4.549   3.830   4.533 -0.7915 -0.4481  0.6332
   19POPC  C215 2491   4.514   3.625   4.546 -0.5454  0.4428  0.3752
   19POPC  H15R 2492   4.463   3.609   4.643 -1.3751  1.2995  0.0955
   19POPC  H15S 2493   4.571   3.531   4.534 -2.2853 -0.6197  0.2159
   19POPC  C216 2494   4.411   3.648   4.435  0.2310  0.2977 -0.3790
   19POPC  H16R 2495   4.467   3.672   4.342  2.2247 -0.8185  0.5185
   19POPC  H16S 2496   4.346   3.737   4.449 -0.1266 -0.3783  2.5367
   19POPC  C217 2497   4.314   3.535   4.400  0.2489  0.0806  0.2815
   19POPC  H17R 2498   4.209   3.571   4.402  0.9249  2.0591  2.2431
   19POPC  H17S 2499   4.311   3.464   4.486 -1.8031  0.0756  0.2186
   19POPC  C218 2500   4.340   3.460   4.270 -0.4709 -0.2027  0.2995
   19POPC  H18R 2501   4.443   3.419   4.273 -0.9809 -2.0138 -3.6399
   19POPC  H18S 2502   4.320   3.528   4.184  1.2757  0.9646  0.8089
   19POPC  H18T 2503   4.260   3.383   4.266  2.1335 -3.0150  0.6511
   19POPC   C33 2504   5.239   3.854   5.691 -0.1433 -0.5516  0.0803
   19POPC   H3X 2505   5.143   3.910   5.690 -0.2192 -0.6720  0.6223
   19POPC   H3Y 2506   5.221   3.744   5.696 -0.1426 -0.5317  0.5374
   19POPC   C34 2507   5.313   3.875   5.558 -0.3711  0.5571  0.1245
   19POPC   H4X 2508   5.410   3.820   5.565 -1.1860 -0.6703  2.6410
   19POPC   H4Y 2509   5.333   3.983   5.547 -0.1640  0.6118  1.0095
   19POPC   C35 2510   5.244   3.828   5.430  0.1463 -0.5006  0.2269
   19POPC   H5X 2511   5.161   3.901   5.418 -1.3270 -2.1170  0.3448
   19POPC   H5Y 2512   5.205   3.727   5.454  0.9229 -0.7509  0.4611
   19POPC   C36 2513   5.336   3.820   5.308  0.1015 -0.0146  0.1641
   19POPC   H6X 2514   5.414   3.749   5.340 -0.8726 -2.9136 -3.5203
   19POPC   H6Y 2515   5.379   3.922   5.294  0.2524  0.1315  1.6542
   19POPC   C37 2516   5.262   3.760   5.187 -0.2849  0.5517  0.1161
   19POPC   H7X 2517   5.197   3.835   5.137  0.4266  0.1167 -1.4731
   19POPC   H7Y 2518   5.208   3.671   5.224  2.1606 -1.7728 -1.7322
   19POPC   C38 2519   5.364   3.716   5.081 -0.2269 -0.5337  0.6173
   19POPC   H8X 2520   5.443   3.650   5.123 -1.4803 -3.6625 -1.7649
   19POPC   H8Y 2521   5.422   3.804   5.045  0.1248 -1.2075 -0.4795
   19POPC   C39 2522   5.303   3.647   4.959  0.1450  0.0281  0.1088
   19POPC   H9X 2523   5.231   3.573   5.001  0.7612  0.2033  1.5182
   19POPC   H9Y 2524   5.389   3.583   4.932 -1.7867 -3.0391  0.9340
   19POPC  C310 2525   5.239   3.738   4.854  0.1313  0.3945  0.4366
   19POPC  H10X 2526   5.316   3.818   4.844  0.6921 -0.1758  0.1403
   19POPC  H10Y 2527   5.145   3.780   4.896  0.7795  1.9444  0.3907
   19POPC  C311 2528   5.212   3.679   4.716 -0.4916  0.2270  0.6292
   19POPC  H11X 2529   5.135   3.601   4.737 -0.6763  0.3685  0.4849
   19POPC  H11Y 2530   5.299   3.630   4.666 -0.1586  1.3258  0.1224
   19POPC  C312 2531   5.150   3.765   4.606  1.0723  0.5149 -0.0473
   19POPC  H12X 2532   5.045   3.764   4.643  2.0027 -2.2317  2.7505
   19POPC  H12Y 2533   5.158   3.716   4.507 -0.0383 -4.6949  2.2932
   19POPC  C313 2534   5.204   3.908   4.599 -0.2029  0.9952 -0.2800
   19POPC  H13X 2535   5.189   3.957   4.698  0.4405  1.7146 -0.5369
   19POPC  H13Y 2536   5.153   3.969   4.521 -2.2404 -0.3376 -0.0263
   19POPC  C314 2537   5.355   3.921   4.579 -0.0264 -0.3138  0.1482
   19POPC  H14X 2538   5.379   3.915   4.471 -2.1244  1.2462 -0.4443
   19POPC  H14Y 2539   5.406   3.832   4.623 -0.2983 -0.0970  0.9028
   19POPC  C315 2540   5.410   4.053   4.635  0.3327 -0.3609 -0.0956
   19POPC  H15X 2541   5.521   4.051   4.637  0.3154 -1.3885  0.5020
   19POPC  H15Y 2542   5.375   4.050   4.740 -0.9121 -1.2123 -0.5196
   19POPC  C316 2543   5.349   4.171   4.559  0.2806  0.2121  0.8389
   19POPC  H16X 2544   5.242   4.184   4.585 -0.8983 -3.2523 -1.9224
   19POPC  H16Y 2545   5.362   4.160   4.450  1.1006 -0.4596  0.9986
   19POPC  H16Z 2546   5.404   4.264   4.584  0.0425  0.9108 -1.1716
   20POPC     N 2547   6.911   7.307   6.309 -0.2090  0.3365  0.2768
   20POPC   C12 2548   6.863   7.276   6.170  0.0275 -0.6574  0.4151
   20POPC  H12A 2552   6.863   7.363   6.106  2.9244  1.0985  2.7221
   20POPC  H12B 2553   6.757   7.268   6.192 -0.0768  0.1955  0.2243
   20POPC   C13 2549   6.915   7.183   6.395 -0.0799  0.3163  0.2434
   20POPC  H13A 2554   6.979   7.106   6.355 -0.4148  0.2149 -0.1054
   20POPC  H13B 2555   6.947   7.219   6.491  1.9678 -0.3880 -0.1582
   20POPC  H13C 2556   6.813   7.144   6.394  0.2996 -0.7034 -0.0085
   20POPC   C14 2550   7.047   7.371   6.292 -0.1566  0.0736 -0.3005
   20POPC  H14A 2557   7.093   7.387   6.388  0.6061 -0.8372 -0.5077
   20POPC  H14B 2558   7.110   7.310   6.229  1.3001 -0.0737  1.2532
   20POPC  H14C 2559   7.031   7.466   6.243 -2.1898  1.3702  2.6685
   20POPC   C15 2551   6.814   7.413   6.355 -0.0046  0.4443  0.4671
   20POPC  H15A 2560   6.857   7.462   6.441  1.9493 -1.6620  0.7257
   20POPC  H15B 2561   6.721   7.366   6.384  0.7911  0.8101  3.8207
   20POPC  H15C 2562   6.789   7.478   6.273  1.4862 -0.6760 -0.8883
   20POPC   C11 2563   6.923   7.163   6.085  0.3049 -0.2231  0.0329
   20POPC  H11A 2564   6.863   7.177   5.992  1.0118 -1.3525 -0.6002
   20POPC  H11B 2565   6.894   7.065   6.130  1.1517 -0.1297  0.7948
   20POPC     P 2566   7.137   7.107   5.948  0.4419 -0.0919 -0.3026
   20POPC   O13 2567   7.043   7.015   5.880  0.1870 -0.1002  0.0576
   20POPC   O14 2568   7.268   7.056   5.994  0.2158 -0.2456  0.1845
   20POPC   O12 2569   7.064   7.178   6.072  0.2662 -0.1864 -0.3517
   20POPC   O11 2570   7.157   7.232   5.850  0.0877  0.1713 -0.0413
   20POPC    C1 2571   7.050   7.303   5.786 -0.0893  0.4129  0.5119
   20POPC    HA 2572   7.089   7.405   5.769 -1.5100  0.8759 -0.0077
   20POPC    HB 2573   6.957   7.313   5.845 -0.9481  1.9125 -1.0883
   20POPC    C2 2574   7.007   7.244   5.650  0.5374  0.4706  0.2842
   20POPC    HS 2575   6.938   7.159   5.667  0.6627  0.7224  2.2416
   20POPC   O21 2576   7.129   7.211   5.583  0.2263  0.4357 -0.2655
   20POPC   C21 2577   7.143   7.080   5.567 -0.0589  0.3731 -0.0071
   20POPC   O22 2578   7.068   6.992   5.608  0.1421  0.2067  0.0039
   20POPC   C22 2579   7.269   7.049   5.488  0.3434  0.3025  0.6625
   20POPC   H2R 2580   7.312   6.949   5.513  0.7431  0.4693  0.6503
   20POPC   H2S 2581   7.338   7.128   5.527  0.2388  1.3546 -1.2648
   20POPC    C3 2582   6.934   7.351   5.567 -0.1134 -0.0401  0.1916
   20POPC    HX 2583   7.003   7.438   5.563 -0.3364  0.3481  3.0534
   20POPC    HY 2584   6.843   7.374   5.627  1.0329  0.2933  1.8433
   20POPC   O31 2585   6.903   7.302   5.437  1.0367 -0.5825  0.1171
   20POPC   C31 2586   6.891   7.400   5.347 -0.3819 -0.0969  0.8221
   20POPC   O32 2587   6.905   7.519   5.368  0.4862  0.0585 -0.6214
   20POPC   C32 2588   6.858   7.337   5.212 -0.3361  0.5390  0.5162
   20POPC   H2X 2589   6.760   7.286   5.218 -0.0862 -0.1079 -0.7592
   20POPC   H2Y 2590   6.929   7.253   5.196 -0.7865  0.5954 -1.9157
   20POPC   C23 2591   7.238   7.070   5.340 -0.5076  0.0471  0.8032
   20POPC   H3R 2592   7.334   7.104   5.295 -1.1561  3.4466  1.8742
   20POPC   H3S 2593   7.177   7.161   5.324 -0.1868 -0.0390 -0.9468
   20POPC   C24 2594   7.178   6.948   5.270  0.5314 -0.3477  0.5990
   20POPC   H4R 2595   7.069   6.946   5.291  0.1938 -0.2097 -1.0317
   20POPC   H4S 2596   7.220   6.856   5.316 -1.9029 -1.2302  1.0748
   20POPC   C25 2597   7.199   6.926   5.120 -0.4505 -0.3120  0.4574
   20POPC   H5R 2598   7.180   6.818   5.104  0.1696 -0.5272  1.1372
   20POPC   H5S 2599   7.308   6.937   5.102 -0.8113  0.1073 -1.6443
   20POPC   C26 2600   7.112   7.007   5.023  0.3568  0.1438  0.1117
   20POPC   H6R 2601   7.152   7.110   5.011 -1.1832  0.7310 -0.0799
   20POPC   H6S 2602   7.015   7.014   5.076  0.0367 -1.6863 -0.2052
   20POPC   C27 2603   7.086   6.937   4.890 -0.9911  0.3694  0.2558
   20POPC   H7R 2604   7.020   6.848   4.904 -1.0154  0.4449  0.6210
   20POPC   H7S 2605   7.180   6.904   4.841 -1.8423  0.4097 -1.4460
   20POPC   C28 2606   7.015   7.030   4.791  0.0057  0.4320 -0.3987
   20POPC   H8R 2607   7.097   7.064   4.724  0.7524 -0.2845  0.1343
   20POPC   H8S 2608   6.979   7.113   4.855 -0.2999 -0.3225  0.4138
   20POPC   C29 2609   6.911   6.950   4.718 -0.1081  0.4054 -0.2071
   20POPC   H91 2610   6.939   6.850   4.682 -1.3400 -0.2127  0.5061
   20POPC  C210 2611   6.788   6.989   4.680 -0.2769  0.2720  0.2001
   20POPC  H101 2612   6.735   6.928   4.606  1.2440 -0.2573 -0.4807
   20POPC  C211 2613   6.736   7.126   4.711 -0.8346 -0.0965  0.9299
   20POPC  H11R 2614   6.821   7.196   4.728 -0.9779  0.3016  0.0350
   20POPC  H11S 2615   6.670   7.124   4.800 -0.6857  1.9528  1.1264
   20POPC  C212 2616   6.644   7.179   4.601  0.4283 -0.2216 -0.2046
   20POPC  H12R 2617   6.700   7.180   4.505  0.2888 -0.0424 -0.2865
   20POPC  H12S 2618   6.614   7.282   4.630 -1.4884  0.0596 -2.9435
   20POPC  C213 2619   6.518   7.095   4.578  0.2560 -0.0953  0.2726
   20POPC  H13R 2620   6.446   7.097   4.663 -0.0092  1.1096  0.0379
   20POPC  H13S 2621   6.558   6.993   4.562  0.0017 -0.6231  2.8080
   20POPC  C214 2622   6.450   7.134   4.446  0.3909 -0.0984  0.2011
   20POPC  H14R 2623   6.513   7.124   4.355 -0.1519  0.5656 -0.2518
   20POPC  H14S 2624   6.413   7.238   4.444  0.3905 -0.1192 -0.6914
   20POPC  C215 2625   6.336   7.035   4.420 -0.0780  0.5555 -0.2414
   20POPC  H15R 2626   6.252   7.060   4.489 -1.9131 -1.2216 -1.7616
   20POPC  H15S 2627   6.371   6.931   4.437  1.2897  1.0311 -0.1121
   20POPC  C216 2628   6.292   7.054   4.275 -0.3049  0.0074 -0.2477
   20POPC  H16R 2629   6.374   7.041   4.201 -1.3850 -2.5090 -1.0430
   20POPC  H16S 2630   6.258   7.159   4.263  0.1419 -0.1314 -3.0994
   20POPC  C217 2631   6.176   6.966   4.230  0.0026 -0.5367  0.0267
   20POPC  H17R 2632   6.174   6.865   4.277  1.8701 -0.0080  1.3158
   20POPC  H17S 2633   6.190   6.946   4.122 -2.7218 -0.8523 -0.3065
   20POPC  C218 2634   6.038   7.022   4.262  0.2979  0.2293 -0.0270
   20POPC  H18R 2635   6.033   7.064   4.365 -0.9907 -1.6092  0.6926
   20POPC  H18S 2636   5.966   6.937   4.261 -0.2459  0.6772 -2.5247
   20POPC  H18T 2637   6.006   7.105   4.195 -2.2335 -0.6119  0.0532
   20POPC   C33 2638   6.874   7.439   5.099 -0.0871  0.0617  0.1206
   20POPC   H3X 2639   6.972   7.491   5.105 -0.2899  0.6365 -1.2367
   20POPC   H3Y 2640   6.802   7.523   5.105 -0.8290 -0.6684  1.5905
   20POPC   C34 2641   6.868   7.379   4.958  0.6282 -0.2817  0.2352
   20POPC   H4X 2642   6.774   7.325   4.936  0.6891 -0.4936  0.4908
   20POPC   H4Y 2643   6.945   7.300   4.947 -1.7132 -2.5146 -0.5602
   20POPC   C35 2644   6.889   7.488   4.853  0.0424 -0.4037 -0.0087
   20POPC   H5X 2645   6.835   7.575   4.897 -2.4945 -1.5133 -0.8415
   20POPC   H5Y 2646   6.829   7.457   4.765  0.7995 -0.6315 -0.4433
   20POPC   C36 2647   7.031   7.535   4.819  0.0457 -0.2848  0.1712
   20POPC   H6X 2648   7.092   7.519   4.911 -0.5020  0.2337  0.6389
   20POPC   H6Y 2649   7.035   7.644   4.797 -0.1753 -0.1819  0.6107
   20POPC   C37 2650   7.113   7.460   4.715 -0.1354  0.3290 -0.4144
   20POPC   H7X 2651   7.109   7.357   4.755  1.4000  0.4878  0.1934
   20POPC   H7Y 2652   7.214   7.505   4.716 -0.0798  0.1902  0.0699
   20POPC   C38 2653   7.065   7.453   4.569 -0.4089  0.0962 -0.3124
   20POPC   H8X 2654   6.957   7.429   4.572 -0.4040  0.2246  1.6198
   20POPC   H8Y 2655   7.113   7.378   4.502 -2.3490  1.1548 -2.9549
   20POPC   C39 2656   7.090   7.585   4.496  0.1507  0.0528 -0.2018
   20POPC   H9X 2657   7.195   7.615   4.521  0.0737  1.2220 -1.2300
   20POPC   H9Y 2658   7.035   7.665   4.550 -1.3995 -0.4206 -1.0678
   20POPC  C310 2659   7.050   7.583   4.348 -0.0421  0.4606 -0.1556
   20POPC  H10X 2660   7.109   7.515   4.283  0.7396 -0.0491  1.0701
   20POPC  H10Y 2661   7.054   7.685   4.304  1.7287  1.3581  1.9348
   20POPC  C311 2662   6.901   7.552   4.335 -0.0490  0.6076 -0.4227
   20POPC  H11X 2663   6.845   7.634   4.286  0.2565  0.5126 -0.9388
   20POPC  H11Y 2664   6.857   7.545   4.436 -2.0832  0.5809 -1.2907
   20POPC  C312 2665   6.880   7.422   4.257  0.0275  0.7552 -0.6911
   20POPC  H12X 2666   6.945   7.344   4.302 -1.0739  0.4346  0.3820
   20POPC  H12Y 2667   6.933   7.435   4.160  1.6278  0.6061  0.1352
   20POPC  C313 2668   6.733   7.382   4.257  0.0539  0.6398  0.6385
   20POPC  H13X 2669   6.701   7.354   4.360  0.8280 -0.0732  0.6967
   20POPC  H13Y 2670   6.731   7.292   4.191  1.4093  2.6180 -2.1677
   20POPC  C314 2671   6.639   7.484   4.194 -0.2888 -0.2920 -0.3741
   20POPC  H14X 2672   6.652   7.495   4.084  1.1783 -1.6937 -0.3521
   20POPC  H14Y 2673   6.642   7.584   4.243  0.5386  1.2836 -3.5083
   20POPC  C315 2674   6.489   7.455   4.200 -0.4955  0.7214 -0.4473
   20POPC  H15X 2675   6.424   7.545   4.203 -1.2325  0.1487  1.4980
   20POPC  H15Y 2676   6.465   7.400   4.294 -0.3405  0.8799 -0.3165
   20POPC  C316 2677   6.421   7.370   4.092 -0.0569  0.1785 -0.2988
   20POPC  H16X 2678   6.496   7.309   4.038 -0.9363  0.1307 -1.4790
   20POPC  H16Y 2679   6.369   7.434   4.018  0.5936 -1.1695 -1.9542
   20POPC  H16Z 2680   6.344   7.311   4.146  0.2140  0.6628  0.6196
   21POPC     N 2681   2.648   6.912   5.860  0.1547 -0.1224  0.1520
   21POPC   C12 2682   2.679   7.043   5.791 -0.7828  0.0798  0.1054
   21POPC  H12A 2686   2.615   7.060   5.706  1.2126  0.3454 -1.3836
   21POPC  H12B 2687   2.773   7.020   5.743 -0.0035  0.5910  1.3680
   21POPC   C13 2683   2.503   6.892   5.900  0.1765  0.1435  0.3661
   21POPC  H13A 2688   2.486   6.958   5.984  0.3444 -1.9905  2.1276
   21POPC  H13B 2689   2.457   6.896   5.803  0.3509 -1.8312  0.1917
   21POPC  H13C 2690   2.489   6.796   5.947 -1.3678  0.1498 -0.0619
   21POPC   C14 2684   2.671   6.798   5.764  0.4341 -0.1910  0.3002
   21POPC  H14A 2691   2.624   6.717   5.818  1.2771 -1.1685 -0.4251
   21POPC  H14B 2692   2.617   6.814   5.672 -0.2619  0.5493  0.8216
   21POPC  H14C 2693   2.774   6.777   5.744  0.1020 -0.0086 -1.6719
   21POPC   C15 2685   2.728   6.891   5.987  0.2190  0.3995  0.1979
   21POPC  H15A 2694   2.698   6.801   6.038  2.6061 -0.9879 -0.7694
   21POPC  H15B 2695   2.721   6.980   6.047  1.1959  1.2267 -0.8809
   21POPC  H15C 2696   2.833   6.896   5.960  0.4543 -0.6487  0.9026
   21POPC   C11 2697   2.694   7.173   5.869  0.2093 -0.1174  0.2465
   21POPC  H11A 2698   2.681   7.255   5.795 -1.6453 -0.2587  0.3899
   21POPC  H11B 2699   2.793   7.183   5.919  0.4276  0.9320 -0.3786
   21POPC     P 2700   2.558   7.318   6.013 -0.0838 -0.0781  0.3414
   21POPC   O13 2701   2.677   7.364   6.087 -0.0643  0.7310 -0.1917
   21POPC   O14 2702   2.435   7.319   6.095 -0.2278  0.0825  0.1243
   21POPC   O12 2703   2.580   7.170   5.955 -0.0593  0.0991 -0.1027
   21POPC   O11 2704   2.536   7.407   5.882 -0.0243 -0.0586  0.3447
   21POPC    C1 2705   2.412   7.388   5.813  0.0120 -0.5607  0.4180
   21POPC    HA 2706   2.366   7.485   5.785 -1.6178 -1.4301 -0.0206
   21POPC    HB 2707   2.339   7.330   5.873 -0.2736 -1.8873 -1.1601
   21POPC    C2 2708   2.432   7.316   5.679 -0.2239  0.5604 -0.2295
   21POPC    HS 2709   2.472   7.217   5.710 -1.7956  0.0018  0.0669
   21POPC   O21 2710   2.537   7.384   5.609  0.4266 -0.0529  0.1416
   21POPC   C21 2711   2.575   7.315   5.502 -0.0568  0.1043 -0.1305
   21POPC   O22 2712   2.529   7.208   5.467 -0.3007  0.1509  0.0536
   21POPC   C22 2713   2.680   7.395   5.425  0.3234 -0.0855  0.1928
   21POPC   H2R 2714   2.770   7.410   5.489 -1.2378 -1.2565  2.7814
   21POPC   H2S 2715   2.632   7.494   5.410 -2.4165 -0.9020  2.9204
   21POPC    C3 2716   2.302   7.315   5.597 -0.0782 -0.0814 -0.4629
   21POPC    HX 2717   2.224   7.312   5.676  0.7079 -0.8494  0.3000
   21POPC    HY 2718   2.293   7.216   5.549 -2.6375 -1.4025  2.5269
   21POPC   O31 2719   2.289   7.417   5.498  0.1171  0.4868  0.0898
   21POPC   C31 2720   2.226   7.526   5.542 -0.1681  0.3560  0.0083
   21POPC   O32 2721   2.190   7.544   5.657 -1.0479  0.0206 -0.2180
   21POPC   C32 2722   2.233   7.621   5.423  0.1419  0.2040 -0.0991
   21POPC   H2X 2723   2.192   7.575   5.331  0.8359  0.1053 -0.3603
   21POPC   H2Y 2724   2.340   7.626   5.393 -0.5677 -1.6053 -3.0807
   21POPC   C23 2725   2.725   7.327   5.296  0.5657 -0.1725  0.3217
   21POPC   H3R 2726   2.644   7.279   5.238  0.5200 -0.7421  0.8698
   21POPC   H3S 2727   2.789   7.240   5.319 -0.2856 -0.4470  1.6667
   21POPC   C24 2728   2.810   7.426   5.215  0.2150  0.0805  0.2607
   21POPC   H4R 2729   2.738   7.503   5.181  1.5799  0.9014 -0.7872
   21POPC   H4S 2730   2.839   7.366   5.127 -3.6684 -0.3120 -0.8151
   21POPC   C25 2731   2.927   7.487   5.293  0.1446  0.1045  0.3473
   21POPC   H5R 2732   2.986   7.397   5.321 -0.1351  0.5149  2.3104
   21POPC   H5S 2733   2.895   7.539   5.386 -1.9131  0.3835 -0.4919
   21POPC   C26 2734   3.020   7.572   5.206  0.5560 -0.3624  0.3235
   21POPC   H6R 2735   3.040   7.511   5.116 -0.7970 -0.4046  0.0441
   21POPC   H6S 2736   3.117   7.588   5.258  1.1396  0.3072 -0.9320
   21POPC   C27 2737   2.960   7.710   5.176  0.4638 -0.4976 -0.1097
   21POPC   H7R 2738   2.950   7.763   5.273 -3.3620 -0.1707 -0.6195
   21POPC   H7S 2739   2.853   7.708   5.147  0.2151 -0.6489  0.8072
   21POPC   C28 2740   3.043   7.783   5.070 -0.2828  0.0071 -0.3544
   21POPC   H8R 2741   3.036   7.730   4.973 -0.8680 -0.4670 -0.0567
   21POPC   H8S 2742   3.151   7.790   5.097 -0.8470 -0.7133  2.2450
   21POPC   C29 2743   2.992   7.924   5.073  0.4982  0.2923 -0.0893
   21POPC   H91 2744   3.046   0.027   5.143  1.4252 -0.8624  0.3097
   21POPC  C210 2745   2.906   0.019   4.987  0.2544 -0.0777 -0.1210
   21POPC  H101 2746   2.860   0.114   5.018 -0.3722 -0.0076 -1.2311
   21POPC  C211 2747   2.833   7.907   4.878 -0.4393  0.0662  0.2206
   21POPC  H11R 2748   2.740   7.866   4.923 -0.4704 -0.8615 -0.6803
   21POPC  H11S 2749   2.897   7.824   4.844 -1.3511 -0.0340 -1.2663
   21POPC  C212 2750   2.822   0.030   4.751  0.7987 -0.5964 -0.3571
   21POPC  H12R 2751   2.923   0.056   4.713  1.4638 -1.3470  0.8461
   21POPC  H12S 2752   2.762   0.121   4.773  1.2714 -0.3436 -0.1058
   21POPC  C213 2753   2.750   7.919   4.637 -0.1991  0.2453 -0.3001
   21POPC  H13R 2754   2.756   0.025   4.549  0.8765 -0.1595 -0.5746
   21POPC  H13S 2755   2.643   7.916   4.668 -0.0565 -0.3505  0.1412
   21POPC  C214 2756   2.804   7.780   4.603 -0.4728  0.0644  0.0072
   21POPC  H14R 2757   2.801   7.712   4.691  0.6773 -1.3704 -1.0487
   21POPC  H14S 2758   2.913   7.794   4.586 -0.2962  0.1631  1.1704
   21POPC  C215 2759   2.735   7.719   4.481 -0.0840 -0.2448 -0.0569
   21POPC  H15R 2760   2.806   7.730   4.396 -0.0313 -1.7650 -0.2247
   21POPC  H15S 2761   2.636   7.763   4.458  0.3039  0.6414 -0.0209
   21POPC  C216 2762   2.721   7.566   4.487 -0.2079 -0.2142  0.4428
   21POPC  H16R 2763   2.674   7.536   4.583 -0.2101 -2.0518 -0.1194
   21POPC  H16S 2764   2.825   7.526   4.489  0.2108  0.9023  2.3716
   21POPC  C217 2765   2.641   7.499   4.376  0.0968  0.3372 -0.1117
   21POPC  H17R 2766   2.700   7.516   4.283  0.3854  0.4975  0.0986
   21POPC  H17S 2767   2.549   7.560   4.363  0.5787  1.5066  1.8560
   21POPC  C218 2768   2.608   7.351   4.392 -0.2980  0.3826 -0.5051
   21POPC  H18R 2769   2.706   7.300   4.390  0.6383  1.9621  2.5874
   21POPC  H18S 2770   2.564   7.323   4.490  2.4593 -2.5553 -0.0295
   21POPC  H18T 2771   2.545   7.311   4.309 -0.7847  1.3382 -0.6050
   21POPC   C33 2772   2.152   7.749   5.447 -0.4136 -0.2578  0.5157
   21POPC   H3X 2773   2.203   7.813   5.522 -2.6251 -0.2116  2.0234
   21POPC   H3Y 2774   2.045   7.744   5.477 -0.7377  0.3512 -0.4969
   21POPC   C34 2775   2.132   7.818   5.312 -0.1996 -0.2850  0.4686
   21POPC   H4X 2776   2.085   7.748   5.239 -0.5331 -1.0332  1.3915
   21POPC   H4Y 2777   2.226   7.836   5.256 -0.6850 -1.4046 -0.7356
   21POPC   C35 2778   2.059   7.952   5.329 -0.1836 -0.2041 -0.0866
   21POPC   H5X 2779   2.107   0.035   5.418  2.2903 -0.4568 -1.2128
   21POPC   H5Y 2780   1.948   7.942   5.329 -0.3244  1.1335 -1.6607
   21POPC   C36 2781   2.088   0.089   5.217  0.4464 -0.1749  0.0629
   21POPC   H6X 2782   2.173   0.042   5.163  0.2841 -0.5325  0.1173
   21POPC   H6Y 2783   2.120   0.184   5.266  2.2634  0.3124 -1.9744
   21POPC   C37 2784   1.958   0.125   5.144  0.2026 -0.0455  0.5629
   21POPC   H7X 2785   1.891   0.179   5.215  1.9172  0.6744  1.6741
   21POPC   H7Y 2786   1.908   0.032   5.109  1.3292 -0.4945  0.1281
   21POPC   C38 2787   1.977   0.220   5.025 -0.3354 -0.1254  0.4144
   21POPC   H8X 2788   2.036   0.309   5.055 -1.4821  0.6082  0.5615
   21POPC   H8Y 2789   1.874   0.245   4.992 -0.8090 -0.7795  1.3593
   21POPC   C39 2790   2.043   0.155   4.904  0.0691  0.2851  0.4179
   21POPC   H9X 2791   1.990   0.062   4.877  1.3458 -1.7574  4.5623
   21POPC   H9Y 2792   2.148   0.130   4.930  0.1956 -1.5640 -1.7311
   21POPC  C310 2793   2.027   0.252   4.787 -0.3226 -0.2419  0.0303
   21POPC  H10X 2794   2.082   0.343   4.822  0.6280  0.0282 -2.0639
   21POPC  H10Y 2795   1.922   0.274   4.760 -0.0658 -0.1444 -0.9284
   21POPC  C311 2796   2.090   0.209   4.654  0.1750 -0.0460  0.1990
   21POPC  H11X 2797   2.032   0.139   4.590  0.1155  1.9165 -1.9713
   21POPC  H11Y 2798   2.188   0.158   4.666  0.9766  1.1077 -1.3715
   21POPC  C312 2799   2.104   0.333   4.566  0.0901 -0.0292  0.2073
   21POPC  H12X 2800   2.179   0.404   4.608 -1.1006  1.3408  0.0463
   21POPC  H12Y 2801   2.009   0.390   4.565  0.1967  0.2739  2.8707
   21POPC  C313 2802   2.128   0.308   4.417 -0.0718 -0.5383  0.2653
   21POPC  H13X 2803   2.103   0.406   4.371  1.2898 -0.5951 -0.6290
   21POPC  H13Y 2804   2.056   0.229   4.385 -0.3948 -0.9296  1.9250
   21POPC  C314 2805   2.277   0.298   4.384 -0.0169 -0.1587  0.3945
   21POPC  H14X 2806   2.338   0.231   4.449  2.1648  2.2444  0.9206
   21POPC  H14Y 2807   2.323   0.397   4.406 -2.5590  1.2495 -0.4148
   21POPC  C315 2808   2.309   0.250   4.242  0.2418  0.1833  0.3363
   21POPC  H15X 2809   2.285   0.141   4.243  0.9380  0.0265 -0.2179
   21POPC  H15Y 2810   2.416   0.258   4.215  0.6635 -0.1628  1.8277
   21POPC  C316 2811   2.235   0.322   4.129  0.1576 -0.3695  0.0365
   21POPC  H16X 2812   2.128   0.337   4.151 -0.0646  1.3408 -2.1030
   21POPC  H16Y 2813   2.242   0.265   4.034  1.2452 -1.0517  0.5145
   21POPC  H16Z 2814   2.277   0.423   4.112 -0.1665 -0.0401  1.1390
   22POPC     N 2815   0.846   5.346   6.410  0.3232  0.1913  0.1792
   22POPC   C12 2816   0.955   5.249   6.370  0.2151  0.2425 -0.2520
   22POPC  H12A 2820   0.910   5.152   6.380 -0.1279  0.2342 -1.7898
   22POPC  H12B 2821   1.027   5.257   6.451 -1.1860  1.1531  0.9442
   22POPC   C13 2817   0.799   5.310   6.548 -0.5869 -0.5051 -0.3097
   22POPC  H13A 2822   0.705   5.357   6.573 -1.4072 -1.7991 -0.8783
   22POPC  H13B 2823   0.773   5.206   6.564 -0.1776 -0.6763 -0.7424
   22POPC  H13C 2824   0.873   5.343   6.619 -2.0268  2.1565  0.0100
   22POPC   C14 2818   0.907   5.484   6.409  0.9883 -0.1002 -0.3382
   22POPC  H14A 2825   0.936   5.530   6.315  2.2702  0.3725  0.2734
   22POPC  H14B 2826   0.836   5.558   6.443 -0.2556 -1.6726  0.5265
   22POPC  H14C 2827   0.997   5.485   6.469 -0.3655  0.2141  1.7101
   22POPC   C15 2819   0.728   5.339   6.316  0.3332  0.3441  0.1567
   22POPC  H15A 2828   0.655   5.413   6.344  0.7988  0.5713  0.7908
   22POPC  H15B 2829   0.675   5.247   6.329  0.4505  0.1125 -0.8931
   22POPC  H15C 2830   0.764   5.345   6.214  1.9162  1.0644  0.7303
   22POPC   C11 2831   1.016   5.258   6.230  0.3028 -0.2304 -0.2430
   22POPC  H11A 2832   1.084   5.171   6.220 -0.2284 -0.7045  0.1889
   22POPC  H11B 2833   1.080   5.349   6.228  0.0660  0.0757  3.0934
   22POPC     P 2834   0.934   5.148   6.014 -0.0812 -0.2305  0.4066
   22POPC   O13 2835   0.842   5.186   5.905  0.6867 -0.2340 -0.2459
   22POPC   O14 2836   0.923   5.013   6.074  0.3302 -0.2453  0.4451
   22POPC   O12 2837   0.919   5.262   6.125  0.2307  0.3608 -0.1542
   22POPC   O11 2838   1.081   5.176   5.958 -0.4541  0.0524 -0.4417
   22POPC    C1 2839   1.114   5.290   5.879 -0.1598  0.0800 -0.2833
   22POPC    HA 2840   1.217   5.323   5.901  0.2990 -1.8640  0.5941
   22POPC    HB 2841   1.045   5.372   5.909  0.6631  0.6381  0.0763
   22POPC    C2 2842   1.105   5.270   5.726 -0.0193  0.0400 -0.2861
   22POPC    HS 2843   1.000   5.239   5.706 -0.1930  0.0912  0.5090
   22POPC   O21 2844   1.196   5.171   5.678  0.1219  0.2537 -0.4569
   22POPC   C21 2845   1.169   5.112   5.561 -0.4712 -1.5178  0.5554
   22POPC   O22 2846   1.058   5.104   5.511 -0.2613  0.3507 -0.2559
   22POPC   C22 2847   1.304   5.058   5.518  0.0134 -0.1851  0.3841
   22POPC   H2R 2848   1.307   4.947   5.526 -1.3460 -0.2530  0.0670
   22POPC   H2S 2849   1.377   5.090   5.596  0.9787 -2.4689  0.4593
   22POPC    C3 2850   1.139   5.403   5.658  0.1510  0.1254 -0.0360
   22POPC    HX 2851   1.246   5.428   5.674  0.0428 -1.3087  3.1948
   22POPC    HY 2852   1.085   5.487   5.705  2.4555  1.1216  0.8956
   22POPC   O31 2853   1.123   5.402   5.515 -0.0462 -0.2326 -0.0126
   22POPC   C31 2854   0.996   5.419   5.480  0.0072 -0.0548 -0.1164
   22POPC   O32 2855   0.909   5.438   5.563  0.1106 -0.8552  0.1830
   22POPC   C32 2856   0.996   5.431   5.328 -0.0157  0.7648 -0.0539
   22POPC   H2X 2857   1.087   5.388   5.281  0.1180  1.0787 -0.0888
   22POPC   H2Y 2858   0.993   5.538   5.296 -1.9754 -0.2732 -3.5482
   22POPC   C23 2859   1.338   5.106   5.377 -0.5373  0.1225  0.3563
   22POPC   H3R 2860   1.441   5.144   5.361  0.0576 -1.3351  0.6437
   22POPC   H3S 2861   1.273   5.194   5.360 -2.1798 -1.0575  0.4231
   22POPC   C24 2862   1.306   4.990   5.281  0.0698  0.1665  0.0955
   22POPC   H4R 2863   1.196   4.982   5.266 -0.2292  3.7456 -0.0329
   22POPC   H4S 2864   1.337   4.895   5.330  0.6637 -0.4108 -1.3940
   22POPC   C25 2865   1.374   4.995   5.145  0.1785 -0.1375  0.1387
   22POPC   H5R 2866   1.483   4.999   5.165  0.7200 -0.4174 -2.4826
   22POPC   H5S 2867   1.341   5.089   5.095 -2.1043 -0.4118  1.0755
   22POPC   C26 2868   1.327   4.881   5.054 -0.1714  0.2932 -0.2274
   22POPC   H6R 2869   1.219   4.906   5.058 -0.6398 -1.7098  0.2554
   22POPC   H6S 2870   1.366   4.787   5.099 -1.8512 -0.3187 -0.0139
   22POPC   C27 2871   1.379   4.899   4.911 -0.0460  0.3207 -0.1790
   22POPC   H7R 2872   1.490   4.891   4.918 -0.1545 -1.4043 -0.1083
   22POPC   H7S 2873   1.368   5.002   4.872  0.0202  0.2240 -0.4543
   22POPC   C28 2874   1.335   4.791   4.812  0.5259 -0.0911  0.0074
   22POPC   H8R 2875   1.369   4.690   4.842 -0.5082 -0.3370  0.3955
   22POPC   H8S 2876   1.377   4.818   4.713  1.1268 -0.4638  0.1618
   22POPC   C29 2877   1.186   4.802   4.795  0.5626 -0.0845 -0.3005
   22POPC   H91 2878   1.144   4.902   4.780  1.5301  0.9385  3.3541
   22POPC  C210 2879   1.101   4.698   4.795  0.1790  0.2286  0.1339
   22POPC  H101 2880   0.994   4.701   4.770  0.5344 -0.3684 -1.5346
   22POPC  C211 2881   1.125   4.551   4.814 -0.0723  0.2173  0.3668
   22POPC  H11R 2882   1.022   4.516   4.837 -0.0402  0.2455  0.5489
   22POPC  H11S 2883   1.182   4.522   4.905 -1.3633 -3.0244  0.2212
   22POPC  C212 2884   1.194   4.501   4.687 -0.3194  0.3241  0.1891
   22POPC  H12R 2885   1.305   4.509   4.695 -0.2899  0.0195  0.0980
   22POPC  H12S 2886   1.180   4.562   4.596  2.9456  0.1802 -0.4886
   22POPC  C213 2887   1.160   4.356   4.652  1.0580 -0.0822  0.5128
   22POPC  H13R 2888   1.241   4.324   4.583  0.1836 -1.8794  0.2852
   22POPC  H13S 2889   1.059   4.350   4.607  0.3118  1.6906  1.9015
   22POPC  C214 2890   1.165   4.255   4.767 -0.6646  0.0345  0.7055
   22POPC  H14R 2891   1.077   4.285   4.828 -0.6909  0.8551  0.2634
   22POPC  H14S 2892   1.261   4.252   4.824 -0.3944 -2.6311  0.2136
   22POPC  C215 2893   1.152   4.110   4.719 -0.2092  0.5293 -0.9482
   22POPC  H15R 2894   1.080   4.100   4.635 -1.2848  3.9605 -0.5046
   22POPC  H15S 2895   1.131   4.043   4.806  1.7708 -0.0610 -0.9092
   22POPC  C216 2896   1.280   4.048   4.664  0.0520 -0.2498  0.4910
   22POPC  H16R 2897   1.364   4.054   4.736 -1.1375  1.0708  1.7977
   22POPC  H16S 2898   1.308   4.086   4.563 -0.2010 -2.4738 -0.4437
   22POPC  C217 2899   1.257   3.899   4.641 -0.1162 -0.1940  0.2949
   22POPC  H17R 2900   1.259   3.845   4.738 -1.2752 -0.2342  0.3044
   22POPC  H17S 2901   1.344   3.868   4.579 -1.4569 -2.4447 -0.5316
   22POPC  C218 2902   1.133   3.855   4.563 -0.2647  0.2337  0.2887
   22POPC  H18R 2903   1.038   3.882   4.614 -1.6052 -1.4059 -1.2859
   22POPC  H18S 2904   1.137   3.749   4.532 -1.3278  0.7677 -1.7281
   22POPC  H18T 2905   1.133   3.908   4.465 -0.7988 -1.2351 -0.5250
   22POPC   C33 2906   0.873   5.365   5.265  0.2497  0.4543 -0.2455
   22POPC   H3X 2907   0.789   5.438   5.265  0.7301  1.0427  1.7436
   22POPC   H3Y 2908   0.835   5.274   5.317 -2.3150  1.2150 -0.7465
   22POPC   C34 2909   0.892   5.329   5.118  0.1426 -0.2141 -0.0988
   22POPC   H4X 2910   0.954   5.411   5.076 -0.3306 -1.1642 -2.7665
   22POPC   H4Y 2911   0.795   5.313   5.067 -0.4063  2.3573  0.0888
   22POPC   C35 2912   0.987   5.212   5.090  0.2250 -0.1713  0.0049
   22POPC   H5X 2913   0.952   5.132   5.160 -2.2912  0.7629 -0.1251
   22POPC   H5Y 2914   1.088   5.239   5.128  0.8682 -2.0633 -0.3301
   22POPC   C36 2915   0.980   5.144   4.953  0.6682 -0.0233 -0.0897
   22POPC   H6X 2916   0.877   5.119   4.923  0.1288  1.2342  0.6610
   22POPC   H6Y 2917   1.035   5.047   4.950  2.6544  1.1278 -2.6734
   22POPC   C37 2918   1.036   5.240   4.847  0.5010  0.4916  0.2864
   22POPC   H7X 2919   1.012   5.347   4.863  0.0427  0.4820 -0.3375
   22POPC   H7Y 2920   0.999   5.208   4.747  0.0365  0.6698  0.3981
   22POPC   C38 2921   1.188   5.225   4.840  0.4801  0.3184  0.1835
   22POPC   H8X 2922   1.220   5.122   4.815 -2.1398 -0.1503 -1.4317
   22POPC   H8Y 2923   1.232   5.243   4.941 -1.6075  0.7070  1.0539
   22POPC   C39 2924   1.264   5.324   4.751  0.4616 -0.1020 -0.3001
   22POPC   H9X 2925   1.374   5.311   4.760  0.4502 -0.8241 -1.2117
   22POPC   H9Y 2926   1.233   5.424   4.788  3.8445  1.1706 -0.7534
   22POPC  C310 2927   1.220   5.308   4.606  0.4287  0.1841 -0.3208
   22POPC  H10X 2928   1.114   5.280   4.592  1.4408 -3.2344 -1.6427
   22POPC  H10Y 2929   1.285   5.231   4.558 -0.1144 -0.0713 -0.6436
   22POPC  C311 2930   1.226   5.443   4.533  1.0970  0.5091  0.3262
   22POPC  H11X 2931   1.288   5.516   4.588  0.2859  0.5092  1.2636
   22POPC  H11Y 2932   1.122   5.484   4.533  0.4072 -1.1940  0.7235
   22POPC  C312 2933   1.292   5.426   4.397  0.0912  0.0967 -0.1149
   22POPC  H12X 2934   1.237   5.357   4.329 -1.4294  0.5432  0.6633
   22POPC  H12Y 2935   1.394   5.388   4.420  0.1460  1.0118  1.1821
   22POPC  C313 2936   1.289   5.562   4.328  0.1799  0.3949  0.4688
   22POPC  H13X 2937   1.324   5.647   4.390 -0.4170  0.9055  0.1153
   22POPC  H13Y 2938   1.182   5.581   4.305  0.3515  0.9836  0.1367
   22POPC  C314 2939   1.359   5.564   4.192  0.3045 -0.0128  0.5283
   22POPC  H14X 2940   1.470   5.562   4.206  0.4193  1.5070 -0.1597
   22POPC  H14Y 2941   1.343   5.657   4.134  2.1338 -0.3469 -0.5703
   22POPC  C315 2942   1.316   5.440   4.113 -0.5654  0.5826  0.0612
   22POPC  H15X 2943   1.208   5.418   4.128 -0.2912 -0.7521  0.1292
   22POPC  H15Y 2944   1.368   5.346   4.140 -0.5893  0.7369  0.6586
   22POPC  C316 2945   1.336   5.475   3.966 -0.1637 -0.2880 -0.0961
   22POPC  H16X 2946   1.285   5.571   3.945 -1.3226 -1.1331 -1.2049
   22POPC  H16Y 2947   1.286   5.400   3.901 -0.0462 -0.5244  0.0849
   22POPC  H16Z 2948   1.444   5.481   3.938  0.5218 -2.6409  1.8419
   23POPC     N 2949   1.183   7.902   5.866 -0.2572 -0.1163  0.3680
   23POPC   C12 2950   1.160   0.078   5.808  0.2638  0.0721  0.5094
   23POPC  H12A 2954   1.235   0.083   5.730 -1.9271  1.9157 -1.5423
   23POPC  H12B 2955   1.179   0.155   5.882  0.0872 -0.0777  0.7112
   23POPC   C13 2951   1.162   7.788   5.769  0.5482 -0.5592  0.7153
   23POPC  H13A 2956   1.058   7.779   5.745  0.1370  0.5661  2.0048
   23POPC  H13B 2957   1.221   7.802   5.679  0.2090 -1.2313  0.3860
   23POPC  H13C 2958   1.201   7.703   5.823  3.1971 -0.0460 -0.2717
   23POPC   C14 2952   1.330   7.896   5.900 -0.2148 -0.2272  0.1694
   23POPC  H14A 2959   1.349   7.802   5.950 -0.8983  1.7282  4.4137
   23POPC  H14B 2960   1.395   7.923   5.818 -1.7263 -3.8309 -2.3216
   23POPC  H14C 2961   1.335   0.015   5.972 -0.6033  2.1317 -2.4120
   23POPC   C15 2953   1.113   7.882   5.998 -0.3715  0.3140  0.3745
   23POPC  H15A 2962   1.007   7.891   5.981  0.0131 -2.0079 -3.8417
   23POPC  H15B 2963   1.143   0.000   6.063 -1.2860  0.3688  0.7284
   23POPC  H15C 2964   1.136   7.786   6.044 -0.0492 -0.0896 -0.6129
   23POPC   C11 2965   1.020   0.106   5.754  0.3657  0.4457  0.4378
   23POPC  H11A 2966   1.009   0.045   5.662 -1.7338 -0.1604  1.0789
   23POPC  H11B 2967   1.004   0.213   5.727  2.2480 -0.2481 -3.7870
   23POPC     P 2968   0.857   0.170   5.945 -0.1549  0.4504  0.1331
   23POPC   O13 2969   0.962   0.227   6.032  0.2267  0.1890 -0.1511
   23POPC   O14 2970   0.753   0.096   6.020  0.2343  0.3203  0.5482
   23POPC   O12 2971   0.921   0.061   5.846 -0.1487  0.6055 -0.0338
   23POPC   O11 2972   0.810   0.291   5.851 -0.2905  0.1271 -0.2204
   23POPC    C1 2973   0.673   0.315   5.822 -0.2026  0.2570 -0.5298
   23POPC    HA 2974   0.646   0.407   5.766 -0.1173  0.4680 -0.2262
   23POPC    HB 2975   0.634   0.324   5.926  0.8794 -0.5773 -0.0527
   23POPC    C2 2976   0.607   0.202   5.741 -0.3637  0.1650 -0.2720
   23POPC    HS 2977   0.593   0.120   5.815  0.1269  1.0073  0.7867
   23POPC   O21 2978   0.703   0.151   5.649  0.1270  0.4216  0.0986
   23POPC   C21 2979   0.660   0.036   5.596 -0.0792  0.3486  0.4221
   23POPC   O22 2980   0.558   7.937   5.624  0.0976 -0.0008  0.3928
   23POPC   C22 2981   0.756   0.006   5.482 -0.5246  0.6555 -0.0446
   23POPC   H2R 2982   0.813   7.876   5.506 -1.8884 -0.0568  0.5112
   23POPC   H2S 2983   0.836   0.082   5.475  0.5363 -0.4474 -0.4185
   23POPC    C3 2984   0.483   0.252   5.666 -0.4263  0.1395 -0.1856
   23POPC    HX 2985   0.423   0.301   5.746 -1.4480 -1.9012  0.3234
   23POPC    HY 2986   0.425   0.162   5.638  1.0542 -0.7653 -0.3790
   23POPC   O31 2987   0.513   0.338   5.555  0.2371 -0.2175 -0.2816
   23POPC   C31 2988   0.401   0.369   5.491  0.0684  0.4850  0.3478
   23POPC   O32 2989   0.290   0.327   5.521  0.0841 -0.1789 -0.5051
   23POPC   C32 2990   0.430   0.442   5.361 -0.7190 -0.3860 -0.3219
   23POPC   H2X 2991   0.478   0.377   5.285 -0.1629 -0.5089  0.1297
   23POPC   H2Y 2992   0.502   0.523   5.385  1.8741 -2.5854 -0.3353
   23POPC   C23 2993   0.693   7.934   5.346 -0.0723  0.0241 -0.0963
   23POPC   H3R 2994   0.650   0.066   5.306  0.7064 -0.3306 -1.9023
   23POPC   H3S 2995   0.618   7.854   5.368 -0.4856  0.0737 -1.3231
   23POPC   C24 2996   0.777   7.880   5.230 -0.2912  0.4220 -0.4394
   23POPC   H4R 2997   0.705   7.866   5.146  1.0162 -0.9568 -1.3566
   23POPC   H4S 2998   0.818   7.779   5.254 -0.4221  0.6840  0.9321
   23POPC   C25 2999   0.890   0.007   5.180 -0.2507  0.1792 -0.8597
   23POPC   H5R 3000   0.944   0.042   5.271 -0.3177 -3.7390  0.7685
   23POPC   H5S 3001   0.842   0.098   5.139  3.7944  0.8419 -4.4904
   23POPC   C26 3002   0.970   7.917   5.060  0.4866  0.3179 -0.4519
   23POPC   H6R 3003   0.898   7.897   4.978  1.4697 -0.1120 -1.2052
   23POPC   H6S 3004   1.028   7.823   5.074  1.0653  0.9047  1.2257
   23POPC   C27 3005   1.074   0.059   5.018  1.2274 -0.0912  0.2490
   23POPC   H7R 3006   1.160   0.066   5.088  0.9281 -2.6300  0.9196
   23POPC   H7S 3007   1.026   0.159   5.015 -2.0951 -1.6282 -1.4140
   23POPC   C28 3008   1.125   0.016   4.881 -0.1335 -0.5089 -0.1391
   23POPC   H8R 3009   1.113   7.869   4.864 -0.1070 -0.2957 -1.8783
   23POPC   H8S 3010   1.235   0.035   4.880  0.3446 -2.9397  1.5829
   23POPC   C29 3011   1.055   0.076   4.763  0.3775 -0.3496 -0.3656
   23POPC   H91 3012   1.029   0.183   4.768 -1.4430 -0.8504  1.4493
   23POPC  C210 3013   1.013   0.022   4.647  0.0247 -0.4852 -0.1752
   23POPC  H101 3014   0.956   0.081   4.573 -0.9557  0.4748  1.2989
   23POPC  C211 3015   1.020   7.842   4.599  0.6680 -0.6858  0.3867
   23POPC  H11R 3016   1.082   7.779   4.667  0.7790  1.8676  2.7572
   23POPC  H11S 3017   1.073   7.847   4.501 -2.7298  0.7364 -1.4449
   23POPC  C212 3018   0.886   7.770   4.590  0.1427  0.3406 -0.0073
   23POPC  H12R 3019   0.901   7.676   4.533  3.4026  0.3301  0.8168
   23POPC  H12S 3020   0.820   7.831   4.523 -0.1476  0.6790  0.5820
   23POPC  C213 3021   0.801   7.751   4.716  0.1388 -0.0507 -0.0709
   23POPC  H13R 3022   0.711   7.704   4.671 -0.6720  0.7692  0.6724
   23POPC  H13S 3023   0.768   7.852   4.749 -0.4720 -0.6407  1.1568
   23POPC  C214 3024   0.868   7.652   4.811  0.1568 -0.2909 -0.3303
   23POPC  H14R 3025   0.953   7.717   4.842 -1.9924  1.8974  1.0640
   23POPC  H14S 3026   0.911   7.566   4.756  1.4278  0.7910 -1.0770
   23POPC  C215 3027   0.787   7.608   4.933 -0.2608 -0.2680 -0.6016
   23POPC  H15R 3028   0.714   7.539   4.886 -0.8011 -1.5036  2.0109
   23POPC  H15S 3029   0.743   7.696   4.985  4.2222  0.8347  1.4939
   23POPC  C216 3030   0.877   7.545   5.038 -0.4595 -0.1106 -0.3364
   23POPC  H16R 3031   0.909   7.628   5.105  0.3494  0.0453 -0.9142
   23POPC  H16S 3032   0.966   7.509   4.982  0.0042  0.7412 -0.1458
   23POPC  C217 3033   0.819   7.412   5.086  0.4064 -0.4289 -0.1541
   23POPC  H17R 3034   0.901   7.350   5.127  0.4357 -0.8662 -0.8588
   23POPC  H17S 3035   0.775   7.364   4.995  0.8387  0.4835 -0.8419
   23POPC  C218 3036   0.709   7.429   5.191  0.3028 -0.0435 -0.3269
   23POPC  H18R 3037   0.745   7.489   5.278  1.4416 -1.1067 -0.0480
   23POPC  H18S 3038   0.693   7.326   5.229 -0.1790  0.6225  1.2822
   23POPC  H18T 3039   0.612   7.468   5.154  0.3689  0.6021  0.1699
   23POPC   C33 3040   0.298   0.493   5.304 -0.4138  0.2810 -0.4355
   23POPC   H3X 3041   0.230   0.534   5.383  0.4357  0.5426  0.1643
   23POPC   H3Y 3042   0.240   0.405   5.270 -2.4432  1.1369  0.6712
   23POPC   C34 3043   0.311   0.592   5.188 -0.8678  0.1426 -0.6053
   23POPC   H4X 3044   0.375   0.675   5.225  0.1023 -1.7258  2.0512
   23POPC   H4Y 3045   0.210   0.633   5.166 -1.8207 -1.3136  0.8988
   23POPC   C35 3046   0.358   0.522   5.060 -0.3923 -0.3102 -0.1887
   23POPC   H5X 3047   0.296   0.433   5.032  0.8326 -1.6642  1.3407
   23POPC   H5Y 3048   0.460   0.479   5.068 -1.7841 -3.5485  0.9671
   23POPC   C36 3049   0.330   0.620   4.946 -0.5837  0.0121  0.1376
   23POPC   H6X 3050   0.397   0.708   4.961 -3.5998  2.3124  0.8750
   23POPC   H6Y 3051   0.228   0.663   4.934  0.1963  1.6090 -1.0147
   23POPC   C37 3052   0.364   0.567   4.807 -0.5697 -0.0900  0.1799
   23POPC   H7X 3053   0.291   0.483   4.797 -0.4929 -0.4733  2.5686
   23POPC   H7Y 3054   0.464   0.520   4.802  0.0602  1.2916 -0.4954
   23POPC   C38 3055   0.349   0.673   4.697 -0.0317 -0.3072 -0.1047
   23POPC   H8X 3056   0.377   0.640   4.595  1.5273  0.6012  0.0165
   23POPC   H8Y 3057   0.425   0.749   4.723 -0.0559  0.0412 -1.0384
   23POPC   C39 3058   0.210   0.736   4.691  0.0132 -0.2101 -0.1116
   23POPC   H9X 3059   0.184   0.797   4.780 -1.6533 -0.7175 -0.2285
   23POPC   H9Y 3060   0.144   0.647   4.702 -0.3454  0.1269  0.4829
   23POPC  C310 3061   0.176   0.799   4.555 -0.5050 -0.0608  0.0832
   23POPC  H10X 3062   0.071   0.833   4.547 -0.7398 -0.5494  1.0429
   23POPC  H10Y 3063   0.204   0.729   4.474 -0.2213 -0.0230  0.1469
   23POPC  C311 3064   0.267   0.921   4.539 -0.2742 -0.2670 -0.1776
   23POPC  H11X 3065   0.376   0.901   4.525 -0.4352 -1.1813 -0.1641
   23POPC  H11Y 3066   0.257   0.983   4.630 -0.3872 -1.2285  0.4728
   23POPC  C312 3067   0.232   1.000   4.412 -0.1092 -0.1840 -0.1717
   23POPC  H12X 3068   0.124   1.023   4.407 -0.4995 -1.8479  0.0440
   23POPC  H12Y 3069   0.245   0.937   4.321 -0.7977 -2.3775  1.1878
   23POPC  C313 3070   0.307   1.133   4.407 -0.0497 -0.2065  0.1013
   23POPC  H13X 3071   0.416   1.116   4.392  0.2777  1.1948  0.8132
   23POPC  H13Y 3072   0.292   1.169   4.511  2.3795 -1.8419  1.0648
   23POPC  C314 3073   0.249   1.243   4.318  0.1436  0.0485  0.2890
   23POPC  H14X 3074   0.183   1.307   4.380 -0.0161 -1.8708  2.1706
   23POPC  H14Y 3075   0.187   1.205   4.234 -0.5091  1.5099  0.0982
   23POPC  C315 3076   0.351   1.332   4.247 -0.0309  0.0833  0.0815
   23POPC  H15X 3077   0.407   1.279   4.167  0.6965  3.3778 -1.6765
   23POPC  H15Y 3078   0.419   1.355   4.332  1.3015 -1.3115 -0.5765
   23POPC  C316 3079   0.300   1.465   4.192  0.5166  0.1269 -0.3286
   23POPC  H16X 3080   0.384   1.531   4.158 -0.6899  1.1665 -1.3418
   23POPC  H16Y 3081   0.241   1.514   4.272  0.3264  0.3363 -0.5982
   23POPC  H16Z 3082   0.228   1.452   4.109 -0.4455 -1.3318  0.7218
   24POPC     N 3083   1.956   1.984   6.519 -0.1990  0.1549 -0.1696
   24POPC   C12 3084   1.878   1.855   6.526  0.0074  0.0246 -0.2494
   24POPC  H12A 3088   1.787   1.874   6.581 -0.3996 -2.2825 -0.0745
   24POPC  H12B 3089   1.931   1.779   6.580  0.1309  1.7179  2.0918
   24POPC   C13 3085   1.987   2.036   6.657  0.6193 -0.2678 -0.1934
   24POPC  H13A 3090   2.047   2.126   6.655 -0.3113  0.4456  1.9831
   24POPC  H13B 3091   1.894   2.053   6.709  0.4984  1.7863 -1.0619
   24POPC  H13C 3092   2.051   1.963   6.706 -0.6224 -0.2701  1.4747
   24POPC   C14 3086   2.091   1.963   6.454 -0.0072 -0.3295  0.3804
   24POPC  H14A 3093   2.077   1.928   6.353  2.4826 -0.5415  0.0785
   24POPC  H14B 3094   2.154   2.051   6.454 -1.7062  0.9119 -1.0598
   24POPC  H14C 3095   2.134   1.879   6.506 -1.6898 -1.1245  0.5099
   24POPC   C15 3087   1.889   2.096   6.442 -0.1018  0.1088 -0.3221
   24POPC  H15A 3096   1.794   2.098   6.492  0.2293  2.0918  0.2675
   24POPC  H15B 3097   1.862   2.060   6.344 -0.2196 -0.9049  0.0676
   24POPC  H15C 3098   1.931   2.195   6.451  1.6219 -0.6144 -0.0097
   24POPC   C11 3099   1.823   1.784   6.402  0.0726 -0.2430 -0.1250
   24POPC  H11A 3100   1.720   1.743   6.410  0.4136 -0.8462  1.2786
   24POPC  H11B 3101   1.900   1.709   6.373  0.0432  0.3943 -1.9656
   24POPC     P 3102   1.823   1.823   6.143  0.0344 -0.2665 -0.1364
   24POPC   O13 3103   1.693   1.754   6.121 -0.0727 -0.1759  0.2085
   24POPC   O14 3104   1.942   1.742   6.107 -0.1712 -0.7550  0.2686
   24POPC   O12 3105   1.822   1.878   6.293 -0.5311 -0.2635 -0.1394
   24POPC   O11 3106   1.828   1.962   6.064  0.3890 -0.2322 -0.0520
   24POPC    C1 3107   1.813   1.944   5.923 -0.1569  0.2317 -0.0525
   24POPC    HA 3108   1.736   2.016   5.888  0.0732  0.9862  0.9754
   24POPC    HB 3109   1.782   1.842   5.892 -1.3488  0.8660 -0.9730
   24POPC    C2 3110   1.937   1.988   5.844  0.1260 -0.1772  0.1585
   24POPC    HS 3111   2.030   1.946   5.887 -0.1522 -1.4911 -0.4874
   24POPC   O21 3112   1.936   2.131   5.851 -0.3205 -0.1463 -0.4553
   24POPC   C21 3113   2.058   2.177   5.824 -0.4654  0.2811 -0.3911
   24POPC   O22 3114   2.153   2.119   5.774  0.2847  0.5236  0.7339
   24POPC   C22 3115   2.068   2.323   5.867  0.2143  0.1289 -0.0235
   24POPC   H2R 3116   2.008   2.343   5.958 -1.8827 -3.5380 -0.4527
   24POPC   H2S 3117   2.027   2.391   5.789 -0.3783  2.1274  2.0069
   24POPC    C3 3118   1.928   1.941   5.698  0.0370 -0.4046  0.2379
   24POPC    HX 3119   1.940   1.830   5.697 -1.3958 -0.5692 -0.2079
   24POPC    HY 3120   2.008   1.978   5.630 -0.3481 -1.3079 -0.7283
   24POPC   O31 3121   1.796   1.961   5.645  0.0660  0.0500  0.3368
   24POPC   C31 3122   1.765   2.078   5.590  0.0642 -0.1267 -0.0439
   24POPC   O32 3123   1.844   2.164   5.555 -0.0796  0.1113  0.2143
   24POPC   C32 3124   1.613   2.093   5.584  0.0465 -0.3657 -0.1796
   24POPC   H2X 3125   1.571   2.141   5.675  2.4484 -0.0428  0.8161
   24POPC   H2Y 3126   1.576   1.988   5.590  0.7313 -0.5270  1.5539
   24POPC   C23 3127   2.213   2.368   5.880  0.1917  0.2529 -0.1906
   24POPC   H3R 3128   2.267   2.342   5.787 -0.6740  0.5780 -0.7888
   24POPC   H3S 3129   2.256   2.322   5.972 -0.6473  3.8173  2.0775
   24POPC   C24 3130   2.230   2.518   5.908  0.2584  0.2015  0.0539
   24POPC   H4R 3131   2.331   2.532   5.951 -0.0631 -0.7804  1.1531
   24POPC   H4S 3132   2.162   2.544   5.992 -2.4865 -0.9702 -1.7009
   24POPC   C25 3133   2.201   2.599   5.781 -0.0559  0.1694  0.1025
   24POPC   H5R 3134   2.239   2.703   5.789  1.6126 -0.1194 -3.1681
   24POPC   H5S 3135   2.092   2.609   5.768 -0.1046  1.1295  1.2082
   24POPC   C26 3136   2.254   2.528   5.656  0.1105  0.2052  0.1520
   24POPC   H6R 3137   2.180   2.452   5.622  1.8091 -1.4793  0.1228
   24POPC   H6S 3138   2.350   2.478   5.682 -0.3976 -0.8891 -0.0123
   24POPC   C27 3139   2.282   2.621   5.538  0.1996 -0.3159 -0.2395
   24POPC   H7R 3140   2.334   2.708   5.583 -1.8328  1.5001 -1.3257
   24POPC   H7S 3141   2.184   2.658   5.500 -0.7206 -0.2417  2.0944
   24POPC   C28 3142   2.384   2.578   5.432  0.4928 -0.1613 -0.0207
   24POPC   H8R 3143   2.342   2.503   5.361 -0.8693  0.1805  0.3931
   24POPC   H8S 3144   2.470   2.521   5.472 -1.1441 -1.9491  1.0874
   24POPC   C29 3145   2.455   2.682   5.350  0.4150 -0.0901  0.0036
   24POPC   H91 3146   2.526   2.748   5.401 -0.4987  0.8113  0.1237
   24POPC  C210 3147   2.435   2.694   5.218 -0.7001  0.3729  0.2048
   24POPC  H101 3148   2.484   2.776   5.165 -0.9924  0.9119  0.7604
   24POPC  C211 3149   2.349   2.611   5.127  0.2481 -0.0564 -0.3117
   24POPC  H11R 3150   2.239   2.610   5.145 -0.1255 -0.5455 -2.5352
   24POPC  H11S 3151   2.375   2.505   5.145 -1.1086 -0.2212  0.7409
   24POPC  C212 3152   2.341   2.639   4.977  0.0051  0.4858 -0.1987
   24POPC  H12R 3153   2.279   2.731   4.975  1.3538  1.4666  1.4285
   24POPC  H12S 3154   2.292   2.557   4.921  0.6750 -0.6142  0.8102
   24POPC  C213 3155   2.471   2.660   4.898 -0.0906  0.4751 -0.3565
   24POPC  H13R 3156   2.539   2.572   4.903 -0.7523 -0.1343 -1.5336
   24POPC  H13S 3157   2.519   2.756   4.924 -0.0518  1.1012 -2.6079
   24POPC  C214 3158   2.452   2.684   4.748 -0.4409 -0.0086 -0.3934
   24POPC  H14R 3159   2.402   2.598   4.697 -0.2955 -0.2476 -0.1356
   24POPC  H14S 3160   2.550   2.712   4.702 -0.3342  0.1533 -0.0687
   24POPC  C215 3161   2.360   2.803   4.726 -0.3473  0.1858  0.2635
   24POPC  H15R 3162   2.408   2.890   4.777  0.3943  0.0695 -0.2286
   24POPC  H15S 3163   2.260   2.785   4.770 -0.8345  0.3129 -0.7602
   24POPC  C216 3164   2.329   2.845   4.582  0.2498  0.6126  0.2538
   24POPC  H16R 3165   2.312   2.954   4.573 -1.6370  0.3992  0.8584
   24POPC  H16S 3166   2.236   2.792   4.549  1.1627 -0.4044 -0.7239
   24POPC  C217 3167   2.442   2.805   4.487  0.0585  0.3174  0.1485
   24POPC  H17R 3168   2.457   2.696   4.475  2.0546  0.4546  1.1315
   24POPC  H17S 3169   2.540   2.855   4.499  0.0565  1.0520 -2.6174
   24POPC  C218 3170   2.410   2.840   4.342 -0.8208  0.6170  0.4089
   24POPC  H18R 3171   2.388   2.949   4.341 -1.4381  0.5079  1.7404
   24POPC  H18S 3172   2.320   2.787   4.305  0.7772 -2.4092  0.6644
   24POPC  H18T 3173   2.500   2.825   4.277  0.5049  0.2860  2.2806
   24POPC   C33 3174   1.567   2.172   5.462  0.3059 -0.1815 -0.1593
   24POPC   H3X 3175   1.622   2.267   5.447 -2.7641  1.6082 -0.4529
   24POPC   H3Y 3176   1.461   2.186   5.489  0.2239  1.0975 -1.0876
   24POPC   C34 3177   1.575   2.088   5.334  0.2398  0.1940 -0.4094
   24POPC   H4X 3178   1.524   1.992   5.357  2.4735 -0.4443  1.9859
   24POPC   H4Y 3179   1.682   2.057   5.337  0.1284 -0.0997  0.6858
   24POPC   C35 3180   1.530   2.153   5.202 -0.4617  0.6180  0.0376
   24POPC   H5X 3181   1.566   2.078   5.129  1.6716  0.0953  1.5608
   24POPC   H5Y 3182   1.580   2.252   5.188  3.0189 -1.0537  0.1685
   24POPC   C36 3183   1.378   2.169   5.195 -0.4612  0.3804 -0.4737
   24POPC   H6X 3184   1.344   2.267   5.236  0.3766  0.7459 -0.6332
   24POPC   H6Y 3185   1.327   2.087   5.249  3.3641 -3.4820 -2.3762
   24POPC   C37 3186   1.335   2.150   5.049  0.2714 -0.8053 -0.5434
   24POPC   H7X 3187   1.344   2.041   5.031 -0.7800 -1.0883  0.5713
   24POPC   H7Y 3188   1.414   2.205   4.995 -0.1551  1.3651  0.9656
   24POPC   C38 3189   1.199   2.211   5.012  0.2607 -0.1432  0.5678
   24POPC   H8X 3190   1.195   2.316   5.048 -0.0043  0.2940 -0.7333
   24POPC   H8Y 3191   1.110   2.169   5.063  1.0536  2.3153  4.2189
   24POPC   C39 3192   1.172   2.216   4.862  0.8327 -0.0081  0.4683
   24POPC   H9X 3193   1.224   2.301   4.812 -1.1152  1.1375  0.3361
   24POPC   H9Y 3194   1.064   2.239   4.853  0.5843 -0.5400  2.0496
   24POPC  C310 3195   1.211   2.095   4.777 -0.5288  0.0530 -0.2454
   24POPC  H10X 3196   1.192   2.007   4.842 -1.5300  1.0059  0.7648
   24POPC  H10Y 3197   1.320   2.105   4.762 -0.4561  0.6684  0.6744
   24POPC  C311 3198   1.123   2.089   4.651 -0.9054 -0.0813  0.0232
   24POPC  H11X 3199   1.089   2.193   4.633  0.5670  0.6727  1.4790
   24POPC  H11Y 3200   1.037   2.020   4.662 -1.3152  0.0385 -2.2037
   24POPC  C312 3201   1.208   2.040   4.534 -0.1340 -0.4570  0.7275
   24POPC  H12X 3202   1.298   1.980   4.559  0.3598  0.8754  2.1799
   24POPC  H12Y 3203   1.258   2.134   4.501  2.3733 -1.1110  2.5240
   24POPC  C313 3204   1.121   1.973   4.428 -0.0652 -0.0457  0.4060
   24POPC  H13X 3205   1.074   2.049   4.361 -0.4009 -1.8873 -1.5178
   24POPC  H13Y 3206   1.037   1.915   4.473 -0.0660 -0.7745 -0.5035
   24POPC  C314 3207   1.201   1.872   4.346 -0.1559 -0.0215  0.2876
   24POPC  H14X 3208   1.188   1.767   4.378 -0.8024 -0.6775 -2.0060
   24POPC  H14Y 3209   1.309   1.890   4.368 -0.2430  1.6740 -0.5777
   24POPC  C315 3210   1.172   1.876   4.196  0.2108  0.1357  0.2203
   24POPC  H15X 3211   1.070   1.920   4.186 -0.9317 -1.9835  2.1545
   24POPC  H15Y 3212   1.168   1.773   4.155  1.9993 -0.1861  0.8128
   24POPC  C316 3213   1.276   1.952   4.113 -0.3372  0.5359 -0.1023
   24POPC  H16X 3214   1.373   1.899   4.122 -1.3325 -0.9746  2.1397
   24POPC  H16Y 3215   1.289   2.055   4.153 -0.5403  0.7819 -0.6575
   24POPC  H16Z 3216   1.239   1.949   4.008 -0.3358 -0.3205 -0.0794
   25POPC     N 3217   1.878   1.276   6.322  0.0755  0.2111 -0.0899
   25POPC   C12 3218   1.917   1.248   6.179 -0.4381 -0.2496 -0.1436
   25POPC  H12A 3222   1.999   1.311   6.144 -0.3535 -1.4715 -2.2561
   25POPC  H12B 3223   1.836   1.270   6.111 -0.9914  0.4805  0.7496
   25POPC   C13 3219   1.754   1.200   6.363 -0.0663 -0.1055 -1.0835
   25POPC  H13A 3224   1.673   1.235   6.302 -0.1203  0.0864 -0.9019
   25POPC  H13B 3225   1.766   1.093   6.354  0.1540  0.0029 -2.1262
   25POPC  H13C 3226   1.722   1.214   6.465  0.0436  1.3461 -1.2424
   25POPC   C14 3220   1.984   1.242   6.424 -0.0534 -0.2947 -0.1234
   25POPC  H14A 3227   2.016   1.139   6.415  0.0387 -0.4076  1.3679
   25POPC  H14B 3228   2.078   1.295   6.413  1.2198 -2.4285  0.1461
   25POPC  H14C 3229   1.937   1.267   6.518 -0.0552  0.3392 -0.2964
   25POPC   C15 3221   1.848   1.423   6.318  0.0771  0.2196  0.2087
   25POPC  H15A 3230   1.852   1.469   6.416  0.2980  0.2366  0.1907
   25POPC  H15B 3231   1.753   1.432   6.267  0.5508 -0.2701 -0.7742
   25POPC  H15C 3232   1.919   1.466   6.249  1.0525 -0.9047  0.4909
   25POPC   C11 3233   1.965   1.107   6.144  0.3767  0.0471 -0.2465
   25POPC  H11A 3234   2.045   1.081   6.216 -0.1383 -0.6044  0.0970
   25POPC  H11B 3235   2.014   1.125   6.046 -0.5433  0.5651 -0.6115
   25POPC     P 3236   1.776   0.993   6.008  0.1362  0.2159 -0.0367
   25POPC   O13 3237   1.666   1.092   6.013  0.4609  0.5795 -0.0820
   25POPC   O14 3238   1.735   0.852   5.992 -0.5462  0.4164 -0.0999
   25POPC   O12 3239   1.864   1.006   6.140  0.0588  0.3546  0.0010
   25POPC   O11 3240   1.862   1.038   5.881 -0.3518  0.6911 -0.2051
   25POPC    C1 3241   1.846   1.166   5.819  0.2987  1.0431  0.3550
   25POPC    HA 3242   1.933   1.183   5.751  0.4826 -1.9267 -0.2063
   25POPC    HB 3243   1.850   1.240   5.902  0.3636  1.8345 -0.3506
   25POPC    C2 3244   1.723   1.178   5.729  0.2439  0.1484  0.3094
   25POPC    HS 3245   1.632   1.140   5.780 -0.2794 -0.7173 -1.2346
   25POPC   O21 3246   1.744   1.114   5.602  0.3198 -0.0186  0.4050
   25POPC   C21 3247   1.716   0.984   5.593 -0.4384  0.1584  0.1635
   25POPC   O22 3248   1.666   0.919   5.683 -0.4286  0.1465  0.1603
   25POPC   C22 3249   1.743   0.948   5.447 -0.3272  0.0386  0.2135
   25POPC   H2R 3250   1.767   0.840   5.435  2.4940  0.9363 -2.7581
   25POPC   H2S 3251   1.831   1.004   5.409  0.0499 -1.1621 -0.7014
   25POPC    C3 3252   1.690   1.323   5.691 -0.1985  0.0149  0.1784
   25POPC    HX 3253   1.681   1.370   5.791  0.9178  1.9077 -0.5804
   25POPC    HY 3254   1.591   1.339   5.643 -0.0110 -2.4246 -1.1060
   25POPC   O31 3255   1.785   1.399   5.615 -0.1165 -0.3909 -0.1264
   25POPC   C31 3256   1.742   1.523   5.591  0.1114 -0.3545 -0.3432
   25POPC   O32 3257   1.637   1.568   5.633  0.3015 -0.3871  0.1672
   25POPC   C32 3258   1.830   1.579   5.480 -0.1198  0.5661 -0.0633
   25POPC   H2X 3259   1.866   1.499   5.413 -0.5805  0.4293 -0.1447
   25POPC   H2Y 3260   1.910   1.641   5.527  2.7200 -1.9708 -1.3615
   25POPC   C23 3261   1.619   0.975   5.361 -0.3175 -0.1393  0.1460
   25POPC   H3R 3262   1.565   1.061   5.405 -1.5386 -0.9965  0.3506
   25POPC   H3S 3263   1.550   0.891   5.384 -0.3830  0.1902  1.1304
   25POPC   C24 3264   1.645   0.973   5.210 -0.4049 -0.4811  0.1333
   25POPC   H4R 3265   1.662   0.867   5.180 -0.0590 -0.5286  0.4963
   25POPC   H4S 3266   1.740   1.029   5.200 -0.6286  0.0632  1.0034
   25POPC   C25 3267   1.532   1.020   5.117 -0.5244 -0.4856  0.2760
   25POPC   H5R 3268   1.563   1.038   5.012 -1.8159 -0.8121 -0.1628
   25POPC   H5S 3269   1.496   1.122   5.143  1.3496 -0.5330  3.4061
   25POPC   C26 3270   1.407   0.934   5.133 -0.3924 -0.7877 -0.2944
   25POPC   H6R 3271   1.379   0.923   5.240 -0.0205 -0.1474 -0.1270
   25POPC   H6S 3272   1.426   0.832   5.094  0.5072 -0.3029 -1.1363
   25POPC   C27 3273   1.297   0.998   5.048  0.1017  0.1588 -0.2312
   25POPC   H7R 3274   1.331   0.983   4.943  0.0991 -1.9309  0.0438
   25POPC   H7S 3275   1.292   1.107   5.071  0.8572  0.9187 -3.3975
   25POPC   C28 3276   1.159   0.938   5.073  0.0511  0.5315  0.3775
   25POPC   H8R 3277   1.159   0.938   5.184  3.2908 -2.2216  0.4377
   25POPC   H8S 3278   1.166   0.835   5.032  3.1847  0.3751  1.2191
   25POPC   C29 3279   1.054   1.021   5.003 -0.0330  0.1213  0.0150
   25POPC   H91 3280   1.088   1.038   4.900 -2.8807 -1.2426 -1.2056
   25POPC  C210 3281   0.946   1.069   5.065  0.1099  0.2000  0.2026
   25POPC  H101 3282   0.878   1.139   5.014 -0.5475  0.9834  2.0658
   25POPC  C211 3283   0.895   1.037   5.203 -0.0051  0.1907  0.1602
   25POPC  H11R 3284   0.923   1.121   5.271  0.9791  0.3655 -0.4470
   25POPC  H11S 3285   0.941   0.944   5.243 -1.1646  0.6086  2.5725
   25POPC  C212 3286   0.743   1.032   5.213 -0.0307  0.0194 -0.3533
   25POPC  H12R 3287   0.704   0.951   5.147  1.5566 -0.3776 -0.8258
   25POPC  H12S 3288   0.705   1.133   5.185  0.0119  0.1874  0.1963
   25POPC  C213 3289   0.700   1.007   5.357 -0.1793 -0.3075 -0.4533
   25POPC  H13R 3290   0.590   0.993   5.361 -0.0024 -1.6667 -0.2144
   25POPC  H13S 3291   0.737   1.090   5.422  0.5468  0.4504 -1.8268
   25POPC  C214 3292   0.746   0.879   5.427 -0.4688 -0.1003  0.1263
   25POPC  H14R 3293   0.853   0.894   5.455  0.0528 -1.2519 -1.1833
   25POPC  H14S 3294   0.751   0.790   5.360  1.7504 -0.8672  1.2484
   25POPC  C215 3295   0.667   0.841   5.552 -0.1129  0.0970  0.4119
   25POPC  H15R 3296   0.649   0.931   5.614 -1.4599  0.0820  0.0713
   25POPC  H15S 3297   0.727   0.779   5.622 -0.8516 -0.8548  0.2211
   25POPC  C216 3298   0.532   0.774   5.521 -0.1287  0.3948 -0.1717
   25POPC  H16R 3299   0.557   0.670   5.494 -1.9827 -0.0303 -0.3059
   25POPC  H16S 3300   0.494   0.825   5.430 -0.6802  1.0664  0.4289
   25POPC  C217 3301   0.429   0.779   5.634 -0.1333 -0.3042 -0.1438
   25POPC  H17R 3302   0.395   0.884   5.650 -1.1832 -0.6832  0.1031
   25POPC  H17S 3303   0.476   0.747   5.730  1.5007 -0.1885 -0.8858
   25POPC  C218 3304   0.305   0.693   5.614 -0.4163 -0.0738  0.5965
   25POPC  H18R 3305   0.231   0.726   5.691 -1.8773  1.1788 -1.2788
   25POPC  H18S 3306   0.317   0.584   5.628 -2.4317 -0.3274  0.4836
   25POPC  H18T 3307   0.251   0.726   5.522  0.3687  2.5830  1.0464
   25POPC   C33 3308   1.741   1.673   5.399 -0.5352 -0.0895 -0.3603
   25POPC   H3X 3309   1.677   1.737   5.462 -0.0984  0.5923 -0.5999
   25POPC   H3Y 3310   1.668   1.607   5.347 -0.6233  0.9468 -1.5677
   25POPC   C34 3311   1.808   1.764   5.296  0.2428 -0.3231 -0.0621
   25POPC   H4X 3312   1.853   1.847   5.356 -1.1403  0.2920  0.1355
   25POPC   H4Y 3313   1.725   1.815   5.244  0.3068  1.8882  1.9047
   25POPC   C35 3314   1.917   1.705   5.207  0.3830 -0.5023  0.2266
   25POPC   H5X 3315   1.860   1.644   5.134 -3.5879  1.1213  1.8434
   25POPC   H5Y 3316   1.979   1.636   5.268 -0.7565 -1.5525  0.1961
   25POPC   C36 3317   1.991   1.810   5.123 -0.5250  0.2270  0.3325
   25POPC   H6X 3318   2.050   1.747   5.053 -2.4711 -2.0287  0.6419
   25POPC   H6Y 3319   2.067   1.850   5.194 -1.9799 -1.3414  2.8586
   25POPC   C37 3320   1.921   1.927   5.054 -0.6459 -0.1029 -0.1024
   25POPC   H7X 3321   2.001   1.998   5.023  0.3011 -1.6701 -1.3921
   25POPC   H7Y 3322   1.850   1.979   5.122 -0.7944 -0.3468 -0.0698
   25POPC   C38 3323   1.853   1.871   4.929 -0.5277 -0.3937 -0.0357
   25POPC   H8X 3324   1.771   1.803   4.961 -3.3705  2.2873 -1.4118
   25POPC   H8Y 3325   1.923   1.811   4.866 -0.1757 -2.3134  2.1302
   25POPC   C39 3326   1.788   1.979   4.842  0.6397  0.2731 -0.0843
   25POPC   H9X 3327   1.870   2.050   4.817  0.9510  0.3208  1.0618
   25POPC   H9Y 3328   1.704   2.032   4.892  1.0658 -1.3742  2.4604
   25POPC  C310 3329   1.732   1.935   4.707  0.3825  0.2472  0.0329
   25POPC  H10X 3330   1.652   1.861   4.728  0.0360 -0.5556 -3.7327
   25POPC  H10Y 3331   1.812   1.896   4.640  0.1240  1.1250 -0.8119
   25POPC  C311 3332   1.658   2.053   4.644 -0.0759  0.0183  0.1407
   25POPC  H11X 3333   1.731   2.135   4.627  2.4614 -2.6356 -2.3642
   25POPC  H11Y 3334   1.574   2.088   4.708  1.3563  1.1216  1.4461
   25POPC  C312 3335   1.584   2.018   4.515 -0.2325 -0.1042  0.2635
   25POPC  H12X 3336   1.520   2.105   4.489 -0.6172  0.2167  2.2208
   25POPC  H12Y 3337   1.526   1.924   4.517 -0.5839  0.0457 -1.5978
   25POPC  C313 3338   1.683   2.011   4.398 -0.6569  0.1172 -0.1066
   25POPC  H13X 3339   1.628   1.997   4.302 -1.5015  1.1710  0.2068
   25POPC  H13Y 3340   1.746   1.921   4.409 -1.9585 -0.6330  1.2246
   25POPC  C314 3341   1.770   2.134   4.372 -0.4564  0.0283  0.1539
   25POPC  H14X 3342   1.849   2.143   4.450 -0.4218  0.6718  0.0543
   25POPC  H14Y 3343   1.711   2.228   4.378 -0.9594 -0.1326 -2.0241
   25POPC  C315 3344   1.839   2.128   4.236 -0.3617  0.5025  0.1794
   25POPC  H15X 3345   1.755   2.108   4.165 -0.9613  1.2930  0.6510
   25POPC  H15Y 3346   1.917   2.049   4.234 -0.4882  0.3713  0.4630
   25POPC  C316 3347   1.895   2.252   4.167 -0.3537  0.2175 -0.3309
   25POPC  H16X 3348   1.806   2.314   4.143 -0.9800 -1.0088 -1.2146
   25POPC  H16Y 3349   1.949   2.222   4.075  1.5251  4.1612 -0.6052
   25POPC  H16Z 3350   1.956   2.319   4.232 -1.1521  0.0578  0.5891
   26POPC     N 3351   4.406   2.008   6.093 -0.1563 -0.4528 -0.3247
   26POPC   C12 3352   4.411   2.023   5.943  0.1116 -0.5748 -0.3284
   26POPC  H12A 3356   4.504   2.075   5.927  1.5860 -3.0578 -0.0486
   26POPC  H12B 3357   4.331   2.092   5.918  0.0534 -1.4542 -2.7539
   26POPC   C13 3353   4.268   1.964   6.135 -0.1785 -0.1732 -0.0985
   26POPC  H13A 3358   4.195   2.038   6.106 -1.7040 -2.4172 -2.2333
   26POPC  H13B 3359   4.246   1.872   6.082 -0.0471  0.0172 -0.4877
   26POPC  H13C 3360   4.258   1.953   6.242  1.9250  2.5093  0.4292
   26POPC   C14 3354   4.509   1.906   6.135  0.1889  0.1184  0.2192
   26POPC  H14A 3361   4.607   1.945   6.109  0.2828 -0.6287 -0.5587
   26POPC  H14B 3362   4.510   1.873   6.238 -3.2101  0.4328  0.3980
   26POPC  H14C 3363   4.499   1.816   6.076  1.7007 -0.0151  0.1281
   26POPC   C15 3355   4.434   2.140   6.161 -0.0209 -0.2239 -0.8160
   26POPC  H15A 3364   4.414   2.138   6.268  0.0833  0.2816 -0.7897
   26POPC  H15B 3365   4.369   2.214   6.117 -0.0066  0.6453  0.5767
   26POPC  H15C 3366   4.535   2.171   6.141  0.0279  1.0685  1.3028
   26POPC   C11 3367   4.398   1.903   5.849 -0.4180 -0.3962 -0.4851
   26POPC  H11A 3368   4.494   1.849   5.859  0.5859  1.4010 -0.1942
   26POPC  H11B 3369   4.388   1.942   5.745  0.9265  1.3411  0.0060
   26POPC     P 3370   4.307   1.670   5.839 -0.0293  0.0066 -0.1196
   26POPC   O13 3371   4.180   1.604   5.876 -0.0462 -0.2319 -0.6056
   26POPC   O14 3372   4.433   1.628   5.906 -0.1872 -0.1002  0.1131
   26POPC   O12 3373   4.285   1.822   5.882 -0.4088 -0.1335  0.1873
   26POPC   O11 3374   4.315   1.682   5.680  0.2716  0.2465 -0.0861
   26POPC    C1 3375   4.191   1.648   5.617  0.1302  0.0354  0.3039
   26POPC    HA 3376   4.201   1.702   5.520 -2.3668 -0.7850 -0.4221
   26POPC    HB 3377   4.096   1.686   5.660 -1.2324 -0.7328 -1.9965
   26POPC    C2 3378   4.174   1.499   5.586  0.1088  0.2669 -0.7983
   26POPC    HS 3379   4.153   1.450   5.683  0.5959  1.8029  0.0897
   26POPC   O21 3380   4.302   1.450   5.542  0.4294 -0.3001  0.7335
   26POPC   C21 3381   4.290   1.319   5.517  0.4317 -0.1772  0.0864
   26POPC   O22 3382   4.210   1.239   5.561  0.2071 -0.2865 -0.5125
   26POPC   C22 3383   4.389   1.281   5.408 -0.1203 -0.0640 -0.4603
   26POPC   H2R 3384   4.490   1.298   5.452 -0.0776  1.1424 -1.0155
   26POPC   H2S 3385   4.376   1.356   5.327 -1.1986 -0.7943 -0.9707
   26POPC    C3 3386   4.052   1.471   5.497 -0.2263 -0.0699 -0.2343
   26POPC    HX 3387   3.976   1.538   5.542  0.7820 -0.1144  1.5639
   26POPC    HY 3388   4.021   1.364   5.498 -0.7522  0.0875  1.9205
   26POPC   O31 3389   4.085   1.500   5.361  0.3099  0.3102 -0.0262
   26POPC   C31 3390   3.996   1.457   5.271  0.2663  0.2165  0.0596
   26POPC   O32 3391   3.887   1.410   5.298  0.3243 -0.1223 -0.2858
   26POPC   C32 3392   4.047   1.469   5.128  0.1555 -0.4853 -0.0371
   26POPC   H2X 3393   4.113   1.558   5.121  0.1518 -0.6241 -2.1425
   26POPC   H2Y 3394   3.963   1.484   5.057 -0.1136 -3.1942 -0.3547
   26POPC   C23 3395   4.360   1.138   5.363 -0.4021 -0.0233 -0.4108
   26POPC   H3R 3396   4.260   1.128   5.317 -0.7959  0.7154  0.2619
   26POPC   H3S 3397   4.363   1.076   5.455  1.5833 -0.2086 -0.5617
   26POPC   C24 3398   4.468   1.087   5.267  0.2120  0.0771  0.2153
   26POPC   H4R 3399   4.447   0.979   5.248 -0.9140  0.6009 -1.7696
   26POPC   H4S 3400   4.572   1.092   5.303  0.7229  1.7281 -1.4373
   26POPC   C25 3401   4.449   1.139   5.124  0.4462  0.4179  0.3073
   26POPC   H5R 3402   4.450   1.249   5.140 -1.7088  0.4201  0.6657
   26POPC   H5S 3403   4.350   1.102   5.089  1.0223 -2.2927  1.4557
   26POPC   C26 3404   4.553   1.089   5.024 -0.2834 -0.0576 -0.2139
   26POPC   H6R 3405   4.551   0.978   5.011  0.8138 -0.2370  1.1329
   26POPC   H6S 3406   4.655   1.111   5.062 -0.4001 -0.5296  0.3860
   26POPC   C27 3407   4.533   1.146   4.883 -0.1965  0.4201 -0.0315
   26POPC   H7R 3408   4.510   1.255   4.887  0.1669  0.5448 -1.1788
   26POPC   H7S 3409   4.444   1.089   4.850 -1.0318  2.5831 -1.6037
   26POPC   C28 3410   4.658   1.121   4.798 -0.4624 -0.0198 -0.2930
   26POPC   H8R 3411   4.684   1.014   4.782  0.2706 -0.7601  4.9069
   26POPC   H8S 3412   4.752   1.150   4.850  0.3491 -0.1242 -1.6916
   26POPC   C29 3413   4.651   1.177   4.659 -0.1516  0.4048 -0.1403
   26POPC   H91 3414   4.591   1.115   4.591  1.6139 -2.6299  0.9719
   26POPC  C210 3415   4.717   1.285   4.615  0.2307  0.1787 -0.1263
   26POPC  H101 3416   4.687   1.318   4.515 -0.4682  2.6012  0.8390
   26POPC  C211 3417   4.780   1.392   4.700  0.2711 -0.1495  0.2565
   26POPC  H11R 3418   4.870   1.433   4.650  0.7188  1.2558  2.1211
   26POPC  H11S 3419   4.822   1.363   4.799 -0.3557  3.5585  1.6741
   26POPC  C212 3420   4.681   1.504   4.731  0.3600 -0.0146  0.0455
   26POPC  H12R 3421   4.603   1.461   4.797  1.0578 -0.9691  0.2547
   26POPC  H12S 3422   4.619   1.543   4.647  1.2844 -0.4778 -0.8648
   26POPC  C213 3423   4.756   1.617   4.801  0.2991  0.0065  0.0783
   26POPC  H13R 3424   4.722   1.720   4.780  0.5788  0.4126  1.5146
   26POPC  H13S 3425   4.865   1.612   4.781  1.0668  2.8744  3.0480
   26POPC  C214 3426   4.747   1.599   4.953  0.2617 -0.0925  0.0647
   26POPC  H14R 3427   4.833   1.655   4.997 -1.8608  4.4424 -1.2541
   26POPC  H14S 3428   4.765   1.491   4.974  3.3334  0.8537  2.7360
   26POPC  C215 3429   4.635   1.650   5.044  0.0794  0.1125 -0.2732
   26POPC  H15R 3430   4.607   1.751   5.008  2.3708  1.1271  0.7111
   26POPC  H15S 3431   4.668   1.637   5.150 -1.2613 -2.2150 -0.1045
   26POPC  C216 3432   4.506   1.569   5.030 -0.2467  0.5603  0.1389
   26POPC  H16R 3433   4.531   1.461   5.039 -0.2298  0.4550 -1.1501
   26POPC  H16S 3434   4.453   1.586   4.934 -0.5280  0.2526  0.2371
   26POPC  C217 3435   4.421   1.597   5.154 -0.0756 -0.1747  0.4251
   26POPC  H17R 3436   4.498   1.602   5.234  0.1301  2.0082  0.1183
   26POPC  H17S 3437   4.354   1.510   5.173 -0.2318 -0.3111 -0.7359
   26POPC  C218 3438   4.334   1.719   5.126 -0.9547 -0.8851  0.0170
   26POPC  H18R 3439   4.282   1.739   5.222  0.6945 -0.4789  0.8488
   26POPC  H18S 3440   4.267   1.691   5.042 -1.2097 -1.3602  0.3812
   26POPC  H18T 3441   4.402   1.805   5.105 -2.0909  0.5199  1.9641
   26POPC   C33 3442   4.125   1.344   5.086  0.3970 -0.3849  0.1137
   26POPC   H3X 3443   4.075   1.249   5.116  0.5496 -0.6726 -0.5409
   26POPC   H3Y 3444   4.227   1.358   5.127  0.1822 -0.5682  0.7188
   26POPC   C34 3445   4.142   1.323   4.936 -0.5136 -0.0159 -0.0402
   26POPC   H4X 3446   4.050   1.280   4.890 -0.1309  1.0559 -1.8506
   26POPC   H4Y 3447   4.223   1.249   4.920  0.4582  1.3220 -1.5187
   26POPC   C35 3448   4.185   1.454   4.869 -0.1977  0.0092  0.2117
   26POPC   H5X 3449   4.292   1.473   4.890  0.1660 -1.6308 -0.0809
   26POPC   H5Y 3450   4.123   1.543   4.893  0.1764 -0.1488  1.8107
   26POPC   C36 3451   4.154   1.440   4.720 -0.8828  0.5075  0.3047
   26POPC   H6X 3452   4.046   1.421   4.699 -1.3322  1.6511  1.5188
   26POPC   H6Y 3453   4.212   1.354   4.682 -0.4040  1.0595 -0.2223
   26POPC   C37 3454   4.201   1.563   4.642 -0.1097  0.3146  0.4637
   26POPC   H7X 3455   4.176   1.652   4.703  0.8763  0.6593  0.3659
   26POPC   H7Y 3456   4.144   1.560   4.546 -2.8498 -0.1023  2.0380
   26POPC   C38 3457   4.353   1.573   4.626 -0.1713  0.3337 -0.1434
   26POPC   H8X 3458   4.380   1.508   4.540  1.6558 -0.6449  1.1286
   26POPC   H8Y 3459   4.416   1.533   4.709 -0.5175  1.0337  0.4648
   26POPC   C39 3460   4.407   1.710   4.586 -0.1009  0.3409 -0.0234
   26POPC   H9X 3461   4.332   1.748   4.513  0.1181  3.1427  1.1276
   26POPC   H9Y 3462   4.502   1.701   4.528  0.3669 -1.2982  0.9819
   26POPC  C310 3463   4.421   1.808   4.703 -0.4487 -0.1982  0.4700
   26POPC  H10X 3464   4.467   1.752   4.788  0.3128  0.2175  0.3369
   26POPC  H10Y 3465   4.322   1.844   4.739 -1.4955 -3.2710  0.8062
   26POPC  C311 3466   4.513   1.923   4.661 -0.8263 -0.0523  0.0419
   26POPC  H11X 3467   4.594   1.882   4.597 -2.8268 -0.9149 -2.0248
   26POPC  H11Y 3468   4.558   1.951   4.758 -0.5383 -2.4914  0.6574
   26POPC  C312 3469   4.434   2.039   4.599  0.1123  0.3535 -0.3978
   26POPC  H12X 3470   4.353   2.070   4.668  0.7007 -0.6073  0.7472
   26POPC  H12Y 3471   4.391   2.004   4.503  2.5034  1.4528 -1.9114
   26POPC  C313 3472   4.521   2.163   4.579  0.2883  0.2812 -0.0962
   26POPC  H13X 3473   4.582   2.181   4.670 -0.0420 -1.5853  0.5198
   26POPC  H13Y 3474   4.454   2.252   4.579 -1.5617 -1.0813 -0.8842
   26POPC  C314 3475   4.603   2.165   4.450  0.1605 -0.0955 -0.1823
   26POPC  H14X 3476   4.538   2.156   4.361  0.6459 -0.1943 -0.5338
   26POPC  H14Y 3477   4.669   2.075   4.450 -1.2664 -1.1689  1.1683
   26POPC  C315 3478   4.684   2.293   4.429 -0.3622  0.2872  0.1396
   26POPC  H15X 3479   4.754   2.307   4.514 -1.5724  1.7636  0.9080
   26POPC  H15Y 3480   4.614   2.380   4.433  1.9194  2.1524  0.4730
   26POPC  C316 3481   4.754   2.306   4.293  0.5135 -0.0839  0.5508
   26POPC  H16X 3482   4.672   2.302   4.218 -0.6529 -1.2284  1.8479
   26POPC  H16Y 3483   4.829   2.228   4.269  1.5062  1.0028  0.1233
   26POPC  H16Z 3484   4.795   2.408   4.282  0.4124 -0.0676  0.3384
   27POPC     N 3485   0.898   0.969   6.475 -0.3296  0.0932  0.4166
   27POPC   C12 3486   0.788   0.922   6.382  0.1606 -0.1665 -0.0357
   27POPC  H12A 3490   0.700   0.983   6.393  2.2642  3.8134 -3.5324
   27POPC  H12B 3491   0.766   0.821   6.411  0.5678 -0.5279 -0.9662
   27POPC   C13 3487   0.977   1.083   6.414 -0.1261 -0.1058  0.3081
   27POPC  H13A 3492   1.041   1.053   6.332 -2.5415 -3.8125 -0.3318
   27POPC  H13B 3493   0.903   1.152   6.378  0.3692  0.1796 -0.1651
   27POPC  H13C 3494   1.038   1.139   6.484 -0.6608  0.5485  0.2541
   27POPC   C14 3488   0.839   1.011   6.608 -0.3591 -0.2844  0.5223
   27POPC  H14A 3495   0.765   1.088   6.591  1.3127  1.1903 -0.1386
   27POPC  H14B 3496   0.776   0.937   6.655 -3.0536  0.4850 -1.7061
   27POPC  H14C 3497   0.914   1.049   6.675 -0.0706  0.7142 -0.3426
   27POPC   C15 3489   0.991   0.855   6.508 -0.6478 -0.2074  0.2788
   27POPC  H15A 3498   1.042   0.825   6.417  1.3752  2.4998  0.4491
   27POPC  H15B 3499   0.951   0.772   6.564  0.0906 -1.5779 -1.1728
   27POPC  H15C 3500   1.072   0.896   6.567 -1.0866  0.3941  0.4688
   27POPC   C11 3501   0.810   0.910   6.232  0.2132  0.8653 -0.1198
   27POPC  H11A 3502   0.813   1.011   6.187  3.4169  0.5940 -0.6721
   27POPC  H11B 3503   0.720   0.862   6.188  1.8983 -2.2812 -0.3237
   27POPC     P 3504   0.914   0.696   6.129 -0.0296 -0.0495 -0.0352
   27POPC   O13 3505   0.801   0.629   6.198 -0.5805  0.5963 -0.2985
   27POPC   O14 3506   1.039   0.620   6.115 -0.0969 -0.1059 -0.3171
   27POPC   O12 3507   0.930   0.835   6.207 -0.3032  0.0230 -0.1060
   27POPC   O11 3508   0.861   0.744   5.986  0.1779  0.4313  0.0486
   27POPC    C1 3509   0.888   0.665   5.870 -0.8315  0.7144 -0.3871
   27POPC    HA 3510   0.803   0.676   5.800 -2.0570  1.9035  1.2711
   27POPC    HB 3511   0.894   0.560   5.906 -1.7843  0.0993 -2.0077
   27POPC    C2 3512   1.023   0.691   5.801 -0.3835  0.0693  0.2364
   27POPC    HS 3513   1.111   0.669   5.866 -0.1425  1.1571  0.2773
   27POPC   O21 3514   1.027   0.825   5.753  0.0335 -0.0401 -0.0431
   27POPC   C21 3515   1.143   0.865   5.700 -0.1720  0.5976 -0.0214
   27POPC   O22 3516   1.247   0.803   5.714 -0.2970  0.3693 -0.0911
   27POPC   C22 3517   1.114   0.987   5.613 -0.1461  0.8527  0.3287
   27POPC   H2R 3518   1.082   1.067   5.683 -1.0134 -0.3465  1.3433
   27POPC   H2S 3519   1.022   0.964   5.555  0.9595 -1.2401 -0.6570
   27POPC    C3 3520   1.044   0.589   5.687 -0.2376 -0.1209  0.4328
   27POPC    HX 3521   1.071   0.493   5.737  1.3906 -0.3701 -0.9081
   27POPC    HY 3522   1.135   0.628   5.637 -1.4981  1.2391 -0.8463
   27POPC   O31 3523   0.936   0.558   5.599 -0.0134  0.3961 -0.0255
   27POPC   C31 3524   0.955   0.450   5.521 -0.0101  0.4745 -0.1336
   27POPC   O32 3525   1.041   0.366   5.535 -0.1885  0.3380  0.1630
   27POPC   C32 3526   0.836   0.447   5.426  0.0376  0.3680 -0.1895
   27POPC   H2X 3527   0.757   0.511   5.471  1.9819  2.2093  0.7072
   27POPC   H2Y 3528   0.808   0.343   5.399 -0.5106  0.4805 -0.0620
   27POPC   C23 3529   1.221   1.039   5.517  0.2146 -0.2835  0.1062
   27POPC   H3R 3530   1.214   0.985   5.420 -1.0354 -1.9781  1.1016
   27POPC   H3S 3531   1.319   0.996   5.546  0.3387 -0.3263 -0.3631
   27POPC   C24 3532   1.241   1.190   5.509  0.0887 -0.2478  0.4705
   27POPC   H4R 3533   1.311   1.207   5.594 -0.3815  1.1836  0.5942
   27POPC   H4S 3534   1.143   1.241   5.523 -0.3805 -0.7738 -0.8710
   27POPC   C25 3535   1.304   1.235   5.377 -0.2601  0.3537  0.5092
   27POPC   H5R 3536   1.232   1.243   5.293 -1.5026  0.2589  1.5544
   27POPC   H5S 3537   1.394   1.179   5.344 -0.7928 -2.1046  3.0518
   27POPC   C26 3538   1.356   1.378   5.395 -0.2093  0.3489  0.3962
   27POPC   H6R 3539   1.440   1.359   5.465  0.5431 -0.1671 -0.6312
   27POPC   H6S 3540   1.287   1.442   5.454 -0.6138  0.8066 -0.5601
   27POPC   C27 3541   1.430   1.431   5.272 -0.2818 -0.0044  0.2009
   27POPC   H7R 3542   1.491   1.347   5.232 -3.4333 -1.1722 -2.3813
   27POPC   H7S 3543   1.495   1.514   5.307 -2.6825  2.3000 -0.6363
   27POPC   C28 3544   1.337   1.492   5.167 -0.4836 -0.0862  0.3319
   27POPC   H8R 3545   1.294   1.588   5.201  2.2944  1.7391 -1.1235
   27POPC   H8S 3546   1.252   1.422   5.151 -0.3674  0.2034 -1.7168
   27POPC   C29 3547   1.421   1.509   5.044 -0.4230  0.0892  0.3970
   27POPC   H91 3548   1.496   1.589   5.050 -0.2071 -0.1023  0.2821
   27POPC  C210 3549   1.392   1.454   4.925  0.0814 -0.2266  0.4189
   27POPC  H101 3550   1.461   1.462   4.839 -0.2975  0.4538  0.1681
   27POPC  C211 3551   1.275   1.367   4.894  0.0473  0.1158 -0.4493
   27POPC  H11R 3552   1.273   1.292   4.976 -1.3538  2.1773  1.4421
   27POPC  H11S 3553   1.293   1.312   4.799 -0.6774  1.8494 -1.6064
   27POPC  C212 3554   1.145   1.447   4.880 -0.1649 -0.0398  0.5531
   27POPC  H12R 3555   1.133   1.521   4.961 -1.2765 -0.6710  0.9710
   27POPC  H12S 3556   1.066   1.370   4.892 -1.0395  0.7601 -0.0364
   27POPC  C213 3557   1.133   1.530   4.752 -0.2456  0.3182  0.7911
   27POPC  H13R 3558   1.156   1.451   4.677  1.2562 -0.1373  1.7106
   27POPC  H13S 3559   1.211   1.608   4.762  1.1166 -1.2511  2.9063
   27POPC  C214 3560   0.995   1.594   4.732 -0.4499 -0.3563  0.0046
   27POPC  H14R 3561   1.006   1.686   4.793  0.3841 -0.6811  0.3571
   27POPC  H14S 3562   0.923   1.524   4.779 -0.7461 -2.1568 -2.9536
   27POPC  C215 3563   0.955   1.630   4.589  0.1600  0.2625 -0.0137
   27POPC  H15R 3564   0.944   1.545   4.518  0.3069  0.0256  0.2470
   27POPC  H15S 3565   1.021   1.710   4.549  0.9997 -0.0155  0.7856
   27POPC  C216 3566   0.816   1.694   4.591 -0.1571 -0.4023 -0.4689
   27POPC  H16R 3567   0.807   1.788   4.650 -0.8834 -1.0830  0.5177
   27POPC  H16S 3568   0.760   1.609   4.635  0.1073  0.3658  1.4105
   27POPC  C217 3569   0.772   1.703   4.445  0.1255  0.1024 -0.5237
   27POPC  H17R 3570   0.800   1.611   4.390  0.1321 -0.5414  0.5439
   27POPC  H17S 3571   0.829   1.784   4.395 -2.4540  1.9443 -0.6322
   27POPC  C218 3572   0.625   1.734   4.416 -0.1035 -0.1871  0.3155
   27POPC  H18R 3573   0.555   1.669   4.473 -1.1990  2.1973  1.7803
   27POPC  H18S 3574   0.618   1.719   4.306  1.1285 -1.1944  0.3762
   27POPC  H18T 3575   0.606   1.843   4.432 -0.0820  0.3710 -3.1345
   27POPC   C33 3576   0.874   0.534   5.306 -0.2183  0.6033 -0.1021
   27POPC   H3X 3577   0.977   0.507   5.274 -0.2325  0.2145  0.1690
   27POPC   H3Y 3578   0.876   0.638   5.345  0.1636  0.4604  0.2650
   27POPC   C34 3579   0.782   0.537   5.184 -0.0434 -0.0382 -0.2570
   27POPC   H4X 3580   0.687   0.581   5.222  0.1050  1.1747 -1.2639
   27POPC   H4Y 3581   0.764   0.432   5.154 -1.7511 -0.2647  1.4539
   27POPC   C35 3582   0.846   0.612   5.067  0.2259 -0.4454 -0.3719
   27POPC   H5X 3583   0.921   0.552   5.013  1.8116 -1.4557  2.8591
   27POPC   H5Y 3584   0.903   0.698   5.110 -0.9122  0.0574  0.1639
   27POPC   C36 3585   0.742   0.668   4.969  0.0787  0.2448  0.1729
   27POPC   H6X 3586   0.687   0.750   5.019 -3.0232  0.5361 -3.4829
   27POPC   H6Y 3587   0.662   0.602   4.929  0.3575  0.9978 -1.7014
   27POPC   C37 3588   0.805   0.727   4.842  0.0216 -0.1570 -0.0400
   27POPC   H7X 3589   0.888   0.671   4.793  0.3549 -0.4550  0.8505
   27POPC   H7Y 3590   0.830   0.831   4.871  4.0852 -0.3375 -2.4921
   27POPC   C38 3591   0.703   0.747   4.730  0.3066  0.5359 -0.1737
   27POPC   H8X 3592   0.627   0.825   4.750 -0.5327 -0.1232 -0.8151
   27POPC   H8Y 3593   0.641   0.660   4.703  0.9630  0.0368 -0.0756
   27POPC   C39 3594   0.774   0.788   4.601  0.5041  0.3639 -0.1201
   27POPC   H9X 3595   0.859   0.723   4.572  0.8725 -0.9576  3.6332
   27POPC   H9Y 3596   0.815   0.887   4.629  0.2589  0.2717  0.5678
   27POPC  C310 3597   0.669   0.795   4.490  0.3921  0.4228 -0.0110
   27POPC  H10X 3598   0.580   0.852   4.525  0.9255  0.4239  1.3614
   27POPC  H10Y 3599   0.622   0.695   4.480 -0.9070  1.1054 -0.9330
   27POPC  C311 3600   0.715   0.837   4.350  0.1251  0.8152  0.0191
   27POPC  H11X 3601   0.768   0.753   4.300  0.8343  0.3758  1.4810
   27POPC  H11Y 3602   0.780   0.928   4.359 -0.7562  1.4487  0.0544
   27POPC  C312 3603   0.591   0.877   4.270 -0.0810 -0.2597 -0.1976
   27POPC  H12X 3604   0.523   0.942   4.329  0.0474 -1.6506  1.5564
   27POPC  H12Y 3605   0.533   0.787   4.240 -0.8978  0.3732 -0.5268
   27POPC  C313 3606   0.619   0.941   4.134 -0.3148 -0.0769 -0.1609
   27POPC  H13X 3607   0.693   0.873   4.087 -0.1400 -1.0597  1.4594
   27POPC  H13Y 3608   0.656   1.045   4.129  0.3517 -0.3588 -1.2371
   27POPC  C314 3609   0.489   0.942   4.055 -0.3487 -0.0085 -0.1047
   27POPC  H14X 3610   0.410   0.976   4.126  0.0162 -0.9849  0.7790
   27POPC  H14Y 3611   0.472   0.834   4.032 -0.7876 -0.6877  3.1159
   27POPC  C315 3612   0.489   1.022   3.924  0.8005 -0.1151 -0.1741
   27POPC  H15X 3613   0.574   0.987   3.863  0.9785  0.8524 -0.4809
   27POPC  H15Y 3614   0.517   1.126   3.948 -1.3866  0.3326  0.5857
   27POPC  C316 3615   0.353   1.019   3.854  0.7554  0.4440 -0.1111
   27POPC  H16X 3616   0.315   0.915   3.841  0.3262  0.2916  2.2347
   27POPC  H16Y 3617   0.352   1.074   3.757 -3.7385  2.2596  0.8513
   27POPC  H16Z 3618   0.285   1.082   3.916  2.0573  0.8318  0.9425
   28POPC     N 3619   4.274   4.829   6.687  0.1726  0.0791 -0.3506
   28POPC   C12 3620   4.168   4.730   6.646 -0.0270  0.5107 -0.8813
   28POPC  H12A 3624   4.187   4.635   6.694 -1.5038  0.3938 -0.4854
   28POPC  H12B 3625   4.170   4.705   6.541 -0.4403  3.2066 -1.5660
   28POPC   C13 3621   4.265   4.883   6.827 -0.3722 -0.1998 -0.2779
   28POPC  H13A 3626   4.195   4.966   6.832  0.2343  0.4691 -2.3133
   28POPC  H13B 3627   4.237   4.811   6.902  0.7784 -0.0917  0.2607
   28POPC  H13C 3628   4.363   4.915   6.859 -0.1777  1.2145 -2.2131
   28POPC   C14 3622   4.408   4.762   6.665 -0.1548 -0.7298  0.1113
   28POPC  H14A 3629   4.481   4.840   6.682 -0.6019 -0.0549 -1.0131
   28POPC  H14B 3630   4.412   4.677   6.732 -2.1526  0.5290  1.8748
   28POPC  H14C 3631   4.428   4.745   6.560  1.4481 -0.9571  0.4474
   28POPC   C15 3623   4.278   4.950   6.596  0.2614  0.1919 -0.1946
   28POPC  H15A 3632   4.305   4.923   6.495 -0.5380 -0.9494 -0.1155
   28POPC  H15B 3633   4.347   5.013   6.651  0.6407 -0.7600  0.4424
   28POPC  H15C 3634   4.185   5.004   6.605 -0.3841 -0.4826 -2.4812
   28POPC   C11 3635   4.021   4.769   6.666 -0.1753 -0.2246 -0.4998
   28POPC  H11A 3636   4.011   4.803   6.772  0.3725 -1.9811  0.1361
   28POPC  H11B 3637   3.950   4.687   6.645 -0.7510  0.3911 -1.0012
   28POPC     P 3638   3.844   4.886   6.502 -0.2780  0.0665  0.0698
   28POPC   O13 3639   3.825   5.022   6.447  0.7030 -0.0238 -0.4883
   28POPC   O14 3640   3.738   4.833   6.591 -0.4108  0.1334 -0.0472
   28POPC   O12 3641   3.983   4.877   6.581 -0.2242  0.1431 -0.0168
   28POPC   O11 3642   3.862   4.792   6.375 -0.0400  0.1482  0.0452
   28POPC    C1 3643   3.986   4.804   6.303  0.1517 -0.4450  0.2723
   28POPC    HA 3644   4.054   4.723   6.336  0.3533 -0.1762  0.5213
   28POPC    HB 3645   4.034   4.901   6.328  0.1390 -0.7550  1.5356
   28POPC    C2 3646   3.969   4.800   6.150 -0.0647 -0.0342  0.2854
   28POPC    HS 3647   4.065   4.830   6.102  0.2997  1.9188  2.1116
   28POPC   O21 3648   3.862   4.889   6.118  0.0041 -0.0612 -0.0183
   28POPC   C21 3649   3.871   4.965   6.008  0.3601 -0.3277 -0.1746
   28POPC   O22 3650   3.963   4.954   5.929  0.1478 -0.1462 -0.4466
   28POPC   C22 3651   3.746   5.050   5.989  0.4495 -0.3002 -0.6357
   28POPC   H2R 3652   3.779   5.155   6.001 -1.7934  0.4120 -0.5256
   28POPC   H2S 3653   3.674   5.031   6.071 -0.9915  1.4102 -1.4713
   28POPC    C3 3654   3.930   4.657   6.111 -0.3523  0.1908 -0.2446
   28POPC    HX 3655   3.828   4.641   6.152 -0.9010 -0.5681 -1.8421
   28POPC    HY 3656   3.990   4.582   6.167 -2.5246 -1.1550  0.3240
   28POPC   O31 3657   3.917   4.637   5.970 -0.2189  0.0075 -0.2324
   28POPC   C31 3658   4.032   4.627   5.904 -0.0007  0.0897  0.1360
   28POPC   O32 3659   4.145   4.623   5.950  0.0928  0.2845 -0.0760
   28POPC   C32 3660   3.998   4.636   5.756 -0.0289  0.2342  0.1522
   28POPC   H2X 3661   4.056   4.558   5.702 -0.7382 -0.3348  0.1873
   28POPC   H2Y 3662   4.022   4.740   5.727 -2.0452 -0.1503 -3.2447
   28POPC   C23 3663   3.684   5.042   5.849 -0.0464  0.6504 -0.4740
   28POPC   H3R 3664   3.592   5.102   5.863 -0.0689  0.9945 -2.0050
   28POPC   H3S 3665   3.658   4.936   5.827  2.5008  0.0361 -0.6962
   28POPC   C24 3666   3.759   5.091   5.725  0.9409 -0.3457 -0.2814
   28POPC   H4R 3667   3.843   5.020   5.707  2.2312  0.5588  1.8815
   28POPC   H4S 3668   3.820   5.179   5.754  0.3936  0.3184 -1.1364
   28POPC   C25 3669   3.667   5.108   5.604  0.2556 -0.3882  0.2288
   28POPC   H5R 3670   3.560   5.105   5.632  0.3358 -0.2379  0.5479
   28POPC   H5S 3671   3.686   5.024   5.534  0.4482  0.4857 -0.7854
   28POPC   C26 3672   3.689   5.238   5.526 -0.3873 -0.2536  0.2698
   28POPC   H6R 3673   3.796   5.236   5.496 -0.6513 -1.3676 -0.6129
   28POPC   H6S 3674   3.663   5.331   5.582  0.3797 -0.7496  1.4780
   28POPC   C27 3675   3.610   5.241   5.395 -0.3617 -0.5291  0.2496
   28POPC   H7R 3676   3.503   5.264   5.417 -0.3902  0.5399 -0.9837
   28POPC   H7S 3677   3.617   5.151   5.330 -0.7018 -1.1261  1.0298
   28POPC   C28 3678   3.641   5.365   5.312 -0.5787 -0.0602  0.8657
   28POPC   H8R 3679   3.748   5.372   5.284  0.0814  2.2816  3.7461
   28POPC   H8S 3680   3.623   5.449   5.383 -1.1300  1.5424 -1.1164
   28POPC   C29 3681   3.548   5.377   5.194 -0.2973 -0.9634  0.5482
   28POPC   H91 3682   3.445   5.408   5.217 -1.0602 -3.6072  0.8147
   28POPC  C210 3683   3.576   5.345   5.067 -0.2319 -0.2724  0.3872
   28POPC  H101 3684   3.499   5.347   4.989 -0.4024  0.4787  0.5724
   28POPC  C211 3685   3.712   5.306   5.016 -0.0248  0.2958  0.5025
   28POPC  H11R 3686   3.719   5.196   5.016 -2.2718  0.1271  0.0409
   28POPC  H11S 3687   3.799   5.353   5.067  0.2197 -1.3235  1.6163
   28POPC  C212 3688   3.733   5.333   4.867 -0.0439 -0.4802  0.3600
   28POPC  H12R 3689   3.711   5.440   4.848  0.6959 -0.3528  0.2088
   28POPC  H12S 3690   3.660   5.272   4.810 -1.2511  0.4163  0.9204
   28POPC  C213 3691   3.877   5.304   4.823 -0.1773 -0.3482 -0.1635
   28POPC  H13R 3692   3.891   5.194   4.837 -0.8278 -0.1968  1.7991
   28POPC  H13S 3693   3.940   5.362   4.894 -2.9777  1.1074  1.2186
   28POPC  C214 3694   3.919   5.351   4.684  1.1535 -0.3582  0.2323
   28POPC  H14R 3695   3.942   5.459   4.679  1.5058 -0.5403 -3.0991
   28POPC  H14S 3696   3.833   5.334   4.615 -0.2582 -0.5526  2.0131
   28POPC  C215 3697   4.040   5.277   4.626  0.9887 -0.0931 -0.4523
   28POPC  H15R 3698   4.035   5.170   4.656  0.3560 -0.7686 -2.8080
   28POPC  H15S 3699   4.132   5.324   4.666  0.1361 -0.5709  2.1734
   28POPC  C216 3700   4.033   5.279   4.473 -0.4721 -0.4409 -0.3975
   28POPC  H16R 3701   4.030   5.386   4.444 -0.4189 -0.9683 -2.4624
   28POPC  H16S 3702   3.949   5.227   4.421  0.5879 -0.3008 -2.3131
   28POPC  C217 3703   4.169   5.238   4.414 -0.3922  0.1574 -0.6280
   28POPC  H17R 3704   4.202   5.138   4.449  0.2471  1.3979  2.4640
   28POPC  H17S 3705   4.244   5.307   4.457 -0.0108  0.1495 -1.2803
   28POPC  C218 3706   4.177   5.249   4.262 -0.8878  0.1978 -0.6511
   28POPC  H18R 3707   4.110   5.174   4.215 -0.8728 -0.3652  0.2185
   28POPC  H18S 3708   4.285   5.246   4.238 -0.7014  1.3787  0.0420
   28POPC  H18T 3709   4.142   5.347   4.224  0.5479  1.8435  2.1285
   28POPC   C33 3710   3.856   4.588   5.723  0.2958 -0.6546  0.0309
   28POPC   H3X 3711   3.778   4.644   5.778  1.0528 -0.1737  0.6141
   28POPC   H3Y 3712   3.866   4.478   5.739  1.8341 -0.6481 -0.7387
   28POPC   C34 3713   3.815   4.592   5.575  0.2961 -0.2473  0.0414
   28POPC   H4X 3714   3.716   4.540   5.575  1.7800 -3.2701  2.2645
   28POPC   H4Y 3715   3.880   4.538   5.503 -2.0977 -2.5167 -0.4818
   28POPC   C35 3716   3.799   4.733   5.520 -0.5122 -0.4591 -0.2698
   28POPC   H5X 3717   3.877   4.794   5.570  1.0310 -3.0645  0.5672
   28POPC   H5Y 3718   3.703   4.770   5.561 -0.6052 -0.6086 -0.3517
   28POPC   C36 3719   3.796   4.744   5.367 -0.3713  0.2003 -0.2248
   28POPC   H6X 3720   3.712   4.686   5.325  0.1230 -0.7775  0.1236
   28POPC   H6Y 3721   3.893   4.707   5.327 -1.6206 -1.1500 -2.0904
   28POPC   C37 3722   3.770   4.885   5.312 -0.0871  0.2238 -0.2992
   28POPC   H7X 3723   3.844   4.955   5.357 -3.0552  0.9240  3.7771
   28POPC   H7Y 3724   3.671   4.912   5.353 -0.1205 -0.0465 -0.1962
   28POPC   C38 3725   3.768   4.878   5.160  0.0318  0.6046 -0.3187
   28POPC   H8X 3726   3.715   4.959   5.105  1.7242  2.8713  1.2710
   28POPC   H8Y 3727   3.720   4.782   5.132  0.0223 -0.5953  3.5557
   28POPC   C39 3728   3.909   4.877   5.101  0.0415 -0.8455 -0.2948
   28POPC   H9X 3729   3.946   4.776   5.128  0.2921 -0.9388 -0.9600
   28POPC   H9Y 3730   3.974   4.953   5.150 -0.3171 -0.1802 -0.8370
   28POPC  C310 3731   3.920   4.902   4.950 -0.2564  0.0485 -0.1700
   28POPC  H10X 3732   4.023   4.933   4.925  0.8946 -3.3455  0.1866
   28POPC  H10Y 3733   3.856   4.989   4.922 -0.4776 -0.0072  0.1539
   28POPC  C311 3734   3.883   4.776   4.871 -0.0175 -0.2211  0.1452
   28POPC  H11X 3735   3.776   4.747   4.881  0.0850 -1.4031 -1.8510
   28POPC  H11Y 3736   3.936   4.689   4.915  1.3127 -0.1822 -1.3277
   28POPC  C312 3737   3.908   4.803   4.722 -0.1432 -0.6913  0.0379
   28POPC  H12X 3738   3.869   4.716   4.666  2.1413 -1.3856 -0.4997
   28POPC  H12Y 3739   4.009   4.829   4.685 -0.8305 -0.8355 -1.9861
   28POPC  C313 3740   3.815   4.911   4.667  0.2880 -0.2935  0.0817
   28POPC  H13X 3741   3.871   5.007   4.674  0.4142 -0.5447  3.1351
   28POPC  H13Y 3742   3.727   4.917   4.735  0.9085 -0.9226  0.9425
   28POPC  C314 3743   3.771   4.884   4.523 -0.1397  0.3405  0.0884
   28POPC  H14X 3744   3.684   4.950   4.502 -1.6441 -0.7839  2.5927
   28POPC  H14Y 3745   3.737   4.780   4.502 -0.3585  1.1247 -3.9005
   28POPC  C315 3746   3.881   4.908   4.419 -0.4327  0.4676 -0.1922
   28POPC  H15X 3747   3.960   4.831   4.426 -0.2553  0.3363 -3.0568
   28POPC  H15Y 3748   3.927   5.009   4.410  2.8243 -0.8029  1.5512
   28POPC  C316 3749   3.828   4.885   4.278 -0.5901 -0.2656 -0.0148
   28POPC  H16X 3750   3.778   4.978   4.242 -1.9450  0.1331  2.8229
   28POPC  H16Y 3751   3.752   4.804   4.282 -2.0163  1.0968  0.9812
   28POPC  H16Z 3752   3.919   4.872   4.214 -2.2130  2.4075 -3.0209
   29POPC     N 3753   0.246   2.458   6.457 -0.4016  0.2155  0.4606
   29POPC   C12 3754   0.135   2.407   6.367  0.1921  0.0732 -0.1947
   29POPC  H12A 3758   0.048   2.462   6.400 -0.5947 -2.5234  2.1803
   29POPC  H12B 3759   0.118   2.303   6.389 -2.2520 -0.6326 -4.8447
   29POPC   C13 3755   0.373   2.384   6.421 -0.2317  0.5889  0.2817
   29POPC  H13A 3760   0.365   2.276   6.428  3.4317  0.1630 -1.1482
   29POPC  H13B 3761   0.406   2.411   6.322 -2.2917  1.1378 -0.2827
   29POPC  H13C 3762   0.456   2.411   6.484  0.2962  0.1422 -0.2166
   29POPC   C14 3756   0.268   2.607   6.445  0.0228  0.1241  0.0920
   29POPC  H14A 3763   0.358   2.633   6.500 -1.1053  1.8994  1.1160
   29POPC  H14B 3764   0.272   2.627   6.339 -1.3491 -4.8023 -1.0191
   29POPC  H14C 3765   0.185   2.659   6.490 -0.4568  1.1561 -1.9465
   29POPC   C15 3757   0.208   2.431   6.600 -0.0714 -0.0428  0.5005
   29POPC  H15A 3766   0.118   2.485   6.627  1.1406  3.0509 -1.4063
   29POPC  H15B 3767   0.274   2.466   6.678  0.6415 -0.6398  0.1623
   29POPC  H15C 3768   0.189   2.325   6.601  2.8331 -0.6486 -1.6944
   29POPC   C11 3769   0.160   2.411   6.216 -0.0524 -0.2896 -0.2450
   29POPC  H11A 3770   0.065   2.371   6.175 -1.1105  0.4377  1.4551
   29POPC  H11B 3771   0.242   2.341   6.192  0.9750  1.5957 -2.4967
   29POPC     P 3772   0.166   2.575   6.026  0.3862 -0.2265  0.2356
   29POPC   O13 3773   0.232   2.704   5.996 -0.3354  0.0066 -0.3855
   29POPC   O14 3774   0.020   2.573   5.997  0.6178  0.1268 -1.0008
   29POPC   O12 3775   0.195   2.545   6.180 -0.0594 -0.1316  0.3387
   29POPC   O11 3776   0.247   2.455   5.957 -0.1266 -0.3352 -0.1861
   29POPC    C1 3777   0.389   2.461   5.974 -0.1681 -0.0910  0.0934
   29POPC    HA 3778   0.419   2.354   5.966  1.0655  0.2955 -0.6416
   29POPC    HB 3779   0.419   2.507   6.070 -0.7054  0.1277  0.1548
   29POPC    C2 3780   0.458   2.532   5.856  0.0782  0.0647  0.3316
   29POPC    HS 3781   0.465   2.642   5.869 -0.4355 -0.0584  1.8104
   29POPC   O21 3782   0.394   2.501   5.732  0.1902 -0.0928  0.3124
   29POPC   C21 3783   0.320   2.599   5.679 -0.6513 -0.7992  0.1647
   29POPC   O22 3784   0.310   2.714   5.721  0.6495 -0.3634 -0.6845
   29POPC   C22 3785   0.256   2.543   5.553 -0.5078  0.3281 -0.4179
   29POPC   H2R 3786   0.150   2.577   5.553 -0.6847 -0.2026  0.7945
   29POPC   H2S 3787   0.267   2.433   5.545  1.7105  0.5769 -1.2065
   29POPC    C3 3788   0.599   2.475   5.834 -0.2358 -0.6379  0.1165
   29POPC    HX 3789   0.612   2.370   5.868 -1.9240 -0.8361  0.2110
   29POPC    HY 3790   0.667   2.534   5.900  1.9639 -0.4080 -2.3065
   29POPC   O31 3791   0.636   2.490   5.697  0.0285 -0.7647  0.1734
   29POPC   C31 3792   0.766   2.474   5.673  0.0322  0.0162 -0.3350
   29POPC   O32 3793   0.843   2.423   5.752  0.0415 -0.3576 -0.5873
   29POPC   C32 3794   0.780   2.531   5.532 -0.0484  0.1087 -0.3065
   29POPC   H2X 3795   0.846   2.620   5.536  1.4198 -1.0172  1.3971
   29POPC   H2Y 3796   0.682   2.559   5.488  0.8479 -0.2844 -2.5700
   29POPC   C23 3797   0.320   2.602   5.428 -0.3635  0.6780 -0.1784
   29POPC   H3R 3798   0.426   2.573   5.410  0.1585  1.8019  0.9795
   29POPC   H3S 3799   0.317   2.713   5.440  0.7182  0.7615 -0.5524
   29POPC   C24 3800   0.238   2.573   5.302 -0.2564 -0.0155 -0.0888
   29POPC   H4R 3801   0.136   2.609   5.330  1.2697  4.0340  0.6541
   29POPC   H4S 3802   0.249   2.465   5.277 -0.2485 -0.4746  1.7923
   29POPC   C25 3803   0.266   2.668   5.186 -0.2570 -0.3015 -0.3219
   29POPC   H5R 3804   0.370   2.650   5.151 -0.5453 -2.3278 -0.1971
   29POPC   H5S 3805   0.260   2.773   5.220 -2.0907  0.2316 -2.1460
   29POPC   C26 3806   0.166   2.661   5.071  0.1189 -0.6597 -0.6312
   29POPC   H6R 3807   0.064   2.685   5.108 -0.0068 -2.7354  0.4014
   29POPC   H6S 3808   0.179   2.561   5.025  0.8239 -0.0652 -1.7512
   29POPC   C27 3809   0.184   2.769   4.963 -0.5382 -0.6125 -0.7000
   29POPC   H7R 3810   0.202   2.866   5.015  2.0601 -0.6361 -1.4789
   29POPC   H7S 3811   0.091   2.774   4.904 -1.6657  1.9451  1.2004
   29POPC   C28 3812   0.305   2.757   4.870  0.2345 -0.0201  0.2196
   29POPC   H8R 3813   0.279   2.676   4.799  0.1296 -0.3380  0.6212
   29POPC   H8S 3814   0.395   2.731   4.930 -0.2681 -1.2031  0.4725
   29POPC   C29 3815   0.333   2.878   4.786  0.7682 -0.3153 -0.0295
   29POPC   H91 3816   0.378   2.971   4.825  0.2664 -0.1934  0.2665
   29POPC  C210 3817   0.318   2.873   4.653  0.1486 -0.3345  0.0403
   29POPC  H101 3818   0.324   2.969   4.600  1.0442 -0.6484 -0.4357
   29POPC  C211 3819   0.279   2.760   4.562 -0.2218 -0.1585 -0.0194
   29POPC  H11R 3820   0.170   2.765   4.544 -0.3318  2.8155  1.1425
   29POPC  H11S 3821   0.308   2.658   4.594  1.4718  0.7558  1.4805
   29POPC  C212 3822   0.330   2.794   4.422  0.0689 -0.3833  0.0298
   29POPC  H12R 3823   0.440   2.778   4.415  0.0164 -0.1612 -1.5795
   29POPC  H12S 3824   0.299   2.901   4.411  0.6687 -0.2160 -0.0509
   29POPC  C213 3825   0.272   2.721   4.301 -0.3295  0.5472 -0.3437
   29POPC  H13R 3826   0.320   2.770   4.213 -0.8806 -0.0011 -0.9617
   29POPC  H13S 3827   0.161   2.728   4.289 -0.5039 -1.1660  0.2787
   29POPC  C214 3828   0.298   2.571   4.295  0.2510  0.6245  0.2243
   29POPC  H14R 3829   0.227   2.502   4.346  0.7948 -1.1580 -1.3663
   29POPC  H14S 3830   0.391   2.561   4.355 -1.0349  0.0268  2.1575
   29POPC  C215 3831   0.318   2.514   4.154  0.0356  0.3260  0.3114
   29POPC  H15R 3832   0.419   2.554   4.131  0.2286 -0.7700 -0.7544
   29POPC  H15S 3833   0.240   2.544   4.081  1.5366 -0.5248 -1.6842
   29POPC  C216 3834   0.323   2.362   4.170  0.2485  0.3933  0.9176
   29POPC  H16R 3835   0.328   2.317   4.068  2.2256 -0.6050  1.4397
   29POPC  H16S 3836   0.232   2.320   4.217 -0.2054  2.1178  1.5999
   29POPC  C217 3837   0.457   2.305   4.218  0.5053  0.1146 -0.1006
   29POPC  H17R 3838   0.495   2.352   4.312 -0.6885 -0.3427  0.6332
   29POPC  H17S 3839   0.531   2.329   4.140  0.0362 -1.3346 -1.0065
   29POPC  C218 3840   0.465   2.153   4.227  0.9727  0.1465 -0.0014
   29POPC  H18R 3841   0.370   2.117   4.271  1.8077 -0.3237  1.4662
   29POPC  H18S 3842   0.558   2.133   4.284  1.3091 -2.3093 -1.3187
   29POPC  H18T 3843   0.477   2.119   4.122 -0.1498  0.5431 -0.2569
   29POPC   C33 3844   0.846   2.436   5.432  0.4472 -0.3233  0.4279
   29POPC   H3X 3845   0.771   2.360   5.401  0.4710 -1.1001  2.1674
   29POPC   H3Y 3846   0.932   2.386   5.480  0.1423 -0.5021  0.7959
   29POPC   C34 3847   0.884   2.510   5.304 -0.3349 -0.0939  0.3272
   29POPC   H4X 3848   0.916   2.439   5.225  1.1344 -0.5034  1.2780
   29POPC   H4Y 3849   0.970   2.576   5.325  1.2851 -1.0287 -2.9479
   29POPC   C35 3850   0.773   2.599   5.248 -0.0767  0.1971  0.2763
   29POPC   H5X 3851   0.745   2.687   5.309 -0.3041  0.7697 -0.6474
   29POPC   H5Y 3852   0.678   2.543   5.230  0.1864 -0.0559 -0.3403
   29POPC   C36 3853   0.818   2.644   5.109  0.1533 -0.2084  0.2195
   29POPC   H6X 3854   0.831   2.549   5.053  1.9215 -0.7865  1.5819
   29POPC   H6Y 3855   0.921   2.685   5.117  0.6804 -1.2971 -0.6749
   29POPC   C37 3856   0.739   2.752   5.034  0.4414 -0.2369 -0.1288
   29POPC   H7X 3857   0.631   2.736   5.053  0.0820 -0.7690 -2.4744
   29POPC   H7Y 3858   0.759   2.719   4.930  0.2734 -1.4743  0.2241
   29POPC   C38 3859   0.780   2.894   5.071 -0.3310 -0.0597  0.0447
   29POPC   H8X 3860   0.891   2.901   5.065 -0.3532 -0.4307 -0.7886
   29POPC   H8Y 3861   0.748   2.917   5.175 -1.3782  1.2790 -0.5574
   29POPC   C39 3862   0.720   3.002   4.980 -0.5288 -0.4738 -0.3143
   29POPC   H9X 3863   0.786   3.088   5.002 -0.2592 -0.6090 -0.5867
   29POPC   H9Y 3864   0.614   3.020   5.008 -0.3917  0.1316 -0.1933
   29POPC  C310 3865   0.731   2.971   4.831 -0.3741  0.2784 -0.4575
   29POPC  H10X 3866   0.696   2.868   4.811  0.1633  0.0888 -0.4482
   29POPC  H10Y 3867   0.840   2.975   4.806 -0.3071  2.9180  0.1096
   29POPC  C311 3868   0.653   3.067   4.740  0.2005  1.1150 -0.0800
   29POPC  H11X 3869   0.707   3.163   4.751  2.1390  0.1709 -0.9202
   29POPC  H11Y 3870   0.551   3.082   4.780  0.8329  1.3219  1.4873
   29POPC  C312 3871   0.652   3.040   4.589 -0.3375  0.0178  0.1118
   29POPC  H12X 3872   0.613   2.937   4.574 -0.7936  0.3587 -1.1119
   29POPC  H12Y 3873   0.754   3.045   4.543  0.3705  0.2857  1.6748
   29POPC  C313 3874   0.563   3.144   4.521 -0.0846  0.2899  0.1924
   29POPC  H13X 3875   0.597   3.245   4.552  0.6292  0.4571 -1.1000
   29POPC  H13Y 3876   0.459   3.140   4.562  0.1406 -0.5392  0.6801
   29POPC  C314 3877   0.552   3.121   4.370 -0.4679 -0.5767  0.3473
   29POPC  H14X 3878   0.541   3.011   4.360  2.5286 -0.8871  0.0333
   29POPC  H14Y 3879   0.654   3.145   4.332  0.4290 -0.1121  2.8903
   29POPC  C315 3880   0.440   3.206   4.309 -0.1340  0.2910  0.9214
   29POPC  H15X 3881   0.489   3.305   4.322  2.4468 -0.7312 -0.5443
   29POPC  H15Y 3882   0.355   3.207   4.380 -1.1527 -0.4759 -0.2621
   29POPC  C316 3883   0.392   3.174   4.168  0.7159  0.5108  0.5754
   29POPC  H16X 3884   0.350   3.071   4.168 -2.6531  1.8170 -0.1908
   29POPC  H16Y 3885   0.477   3.180   4.097 -0.2400 -0.3461 -0.6832
   29POPC  H16Z 3886   0.316   3.246   4.130 -0.3461 -1.3861 -1.0396
   30POPC     N 3887   0.024   0.781   6.402  0.1989 -0.2195 -0.3833
   30POPC   C12 3888   0.024   0.806   6.253  0.3992 -0.1385 -0.3700
   30POPC  H12A 3892   0.076   0.727   6.202  0.0146  0.8288 -2.3046
   30POPC  H12B 3893   0.089   0.892   6.240  0.6473 -0.1638  0.6703
   30POPC   C13 3889   7.899   0.883   6.472  0.1556 -0.4983  0.0173
   30POPC  H13A 3894   7.795   0.869   6.446  0.5716  1.2495 -2.6822
   30POPC  H13B 3895   7.905   0.866   6.579  3.3725  1.4503  0.2029
   30POPC  H13C 3896   7.938   0.982   6.457  0.4006 -0.2717  2.0064
   30POPC   C14 3890   7.931   0.644   6.433  0.1709 -0.0398  0.4329
   30POPC  H14A 3897   0.033   0.568   6.391  1.3201  1.5424 -0.8211
   30POPC  H14B 3898   7.942   0.629   6.540  2.0574 -0.2824  0.2242
   30POPC  H14C 3899   7.829   0.626   6.404  0.6072 -1.0372 -0.5244
   30POPC   C15 3891   0.162   0.785   6.463 -0.3904  0.6111  0.9303
   30POPC  H15A 3900   0.208   0.882   6.448  1.3113 -0.2743  0.2147
   30POPC  H15B 3901   0.216   0.702   6.419 -1.4660  0.9238 -1.0532
   30POPC  H15C 3902   0.154   0.754   6.566 -3.3755 -0.2923  0.4716
   30POPC   C11 3903   7.854   0.835   6.182  0.1293 -0.0078  0.1084
   30POPC  H11A 3904   7.852   0.824   6.071 -2.6643 -0.9647  0.2060
   30POPC  H11B 3905   7.833   0.943   6.198 -0.5549  0.1434 -1.7150
   30POPC     P 3906   7.605   0.755   6.175 -0.3147  0.1598 -0.3197
   30POPC   O13 3907   7.491   0.796   6.260 -0.0968 -0.3619  0.2225
   30POPC   O14 3908   7.605   0.620   6.113  0.1310 -0.1651  0.3752
   30POPC   O12 3909   7.747   0.765   6.247 -0.5064  0.8202 -0.0319
   30POPC   O11 3910   7.613   0.856   6.051 -0.3096  0.4989 -0.0408
   30POPC    C1 3911   7.531   0.833   5.936 -0.1574  0.6245 -0.1750
   30POPC    HA 3912   7.495   0.933   5.904 -1.2515  0.5670  0.8185
   30POPC    HB 3913   7.451   0.758   5.955 -0.6962  0.7257 -1.9369
   30POPC    C2 3914   7.612   0.764   5.826  0.1577 -0.2927  0.6249
   30POPC    HS 3915   7.662   0.667   5.851 -3.5140 -1.9816  1.7336
   30POPC   O21 3916   7.698   0.864   5.771 -0.1245 -0.1745  0.3974
   30POPC   C21 3917   7.829   0.842   5.783 -0.0826 -0.2323 -0.1856
   30POPC   O22 3918   7.878   0.749   5.845 -0.0514  0.1752  0.3958
   30POPC   C22 3919   7.899   0.940   5.690  0.4423 -0.2528  0.1820
   30POPC   H2R 3920   0.016   0.994   5.745  0.6983 -1.4062  1.0225
   30POPC   H2S 3921   7.826   1.009   5.642 -0.4834 -0.5644  1.1356
   30POPC    C3 3922   7.514   0.730   5.712  0.6844 -0.5157  0.2361
   30POPC    HX 3923   7.446   0.818   5.710  0.5527 -0.4322  4.2670
   30POPC    HY 3924   7.450   0.645   5.743  2.0349 -1.3373  0.8277
   30POPC   O31 3925   7.566   0.703   5.581 -0.1953 -0.5708 -0.1014
   30POPC   C31 3926   7.606   0.578   5.557  0.2778 -0.3750 -0.3309
   30POPC   O32 3927   7.591   0.486   5.635 -0.5524  0.1472  0.1303
   30POPC   C32 3928   7.640   0.565   5.409  0.2103  0.1437 -0.3916
   30POPC   H2X 3929   7.637   0.670   5.372 -1.9344 -0.2144 -1.3058
   30POPC   H2Y 3930   7.549   0.518   5.366  0.1245 -1.8122  1.8550
   30POPC   C23 3931   0.009   0.875   5.572 -0.1843 -0.2200 -0.2476
   30POPC   H3R 3932   0.003   0.764   5.573 -1.3341 -0.1559  1.3759
   30POPC   H3S 3933   0.118   0.895   5.578  0.7319 -4.8883  0.6892
   30POPC   C24 3934   7.901   0.920   5.444 -0.1585  0.6495  0.0220
   30POPC   H4R 3935   7.933   1.027   5.437  2.1590  0.0185  0.8002
   30POPC   H4S 3936   7.791   0.908   5.459  0.3591 -0.4795  3.1212
   30POPC   C25 3937   7.959   0.842   5.326 -0.7306  0.6410 -0.2787
   30POPC   H5R 3938   0.006   0.738   5.364 -0.0080  0.0844 -1.9331
   30POPC   H5S 3939   0.096   0.885   5.302 -1.4320  1.9528 -0.8763
   30POPC   C26 3940   7.875   0.843   5.198 -0.4508  0.8523 -0.4893
   30POPC   H6R 3941   7.854   0.949   5.172 -3.4563  0.9195  1.9986
   30POPC   H6S 3942   7.774   0.799   5.216  0.1586 -0.7753 -0.9104
   30POPC   C27 3943   7.953   0.767   5.091  0.1814 -0.2715  0.7502
   30POPC   H7R 3944   0.008   0.658   5.105  0.0964 -0.3944 -0.0147
   30POPC   H7S 3945   0.088   0.819   5.073  0.5130 -0.4754  1.7391
   30POPC   C28 3946   7.886   0.786   4.955  0.3804  0.0080  0.6905
   30POPC   H8R 3947   7.961   0.808   4.876 -0.7096 -2.1502 -1.0252
   30POPC   H8S 3948   7.824   0.879   4.961  1.3360  0.8104 -1.3296
   30POPC   C29 3949   7.812   0.663   4.909  0.0109  0.4439  0.1036
   30POPC   H91 3950   7.805   0.577   4.976 -0.0579  0.4368  0.0872
   30POPC  C210 3951   7.753   0.650   4.789  0.3112 -0.3293  0.0378
   30POPC  H101 3952   7.698   0.557   4.769 -1.3650  0.6972 -0.1798
   30POPC  C211 3953   7.747   0.755   4.682  0.0274 -0.5763 -0.1886
   30POPC  H11R 3954   7.808   0.742   4.590  0.1675 -0.8997 -0.0516
   30POPC  H11S 3955   7.784   0.855   4.711 -0.7551 -0.7946  1.5813
   30POPC  C212 3956   7.600   0.788   4.657  0.1088  0.3847  0.5807
   30POPC  H12R 3957   7.579   0.838   4.754  2.5788 -2.0643  2.4741
   30POPC  H12S 3958   7.536   0.697   4.660  0.3532  0.2003  0.1744
   30POPC  C213 3959   7.555   0.871   4.536  0.0381 -0.1446  0.2390
   30POPC  H13R 3960   7.635   0.936   4.494 -0.8763 -0.6403 -2.3123
   30POPC  H13S 3961   7.471   0.940   4.561 -1.2866 -1.3188 -0.9271
   30POPC  C214 3962   7.490   0.796   4.420 -0.1306 -0.0030  0.2423
   30POPC  H14R 3963   7.435   0.867   4.354 -0.1585  0.5267  0.8298
   30POPC  H14S 3964   7.420   0.718   4.458  0.4904  0.3478  2.1753
   30POPC  C215 3965   7.594   0.728   4.332 -0.1354  0.4712 -0.1328
   30POPC  H15R 3966   7.663   0.667   4.394 -1.7427 -0.7656  0.4861
   30POPC  H15S 3967   7.660   0.814   4.306 -1.6888  1.6504 -0.2142
   30POPC  C216 3968   7.547   0.662   4.202  0.0611  0.1892 -0.0632
   30POPC  H16R 3969   7.480   0.731   4.146 -1.8996 -1.6003  0.0537
   30POPC  H16S 3970   7.482   0.577   4.229 -0.1723  0.0440 -1.0693
   30POPC  C217 3971   7.663   0.615   4.114  0.3796 -0.0980  0.5071
   30POPC  H17R 3972   7.731   0.555   4.177  1.8244 -1.1238 -1.9467
   30POPC  H17S 3973   7.709   0.711   4.083 -0.4698  0.4946  1.0692
   30POPC  C218 3974   7.620   0.544   3.985  0.3104  0.6859  0.0942
   30POPC  H18R 3975   7.715   0.517   3.935 -0.4052  2.1395 -2.1360
   30POPC  H18S 3976   7.553   0.608   3.924 -0.2158  0.4327  0.3962
   30POPC  H18T 3977   7.567   0.451   4.017  0.6678  0.6316  0.5314
   30POPC   C33 3978   7.766   0.480   5.397 -0.0496 -0.2424 -0.4038
   30POPC   H3X 3979   7.764   0.392   5.465  2.4283 -0.8303 -1.0333
   30POPC   H3Y 3980   7.852   0.541   5.435 -0.9435  0.3812  0.6404
   30POPC   C34 3981   7.783   0.432   5.253  0.5601 -0.0736 -0.3935
   30POPC   H4X 3982   7.795   0.519   5.185  0.7189 -0.8229 -1.3396
   30POPC   H4Y 3983   7.687   0.387   5.220  1.4430  0.3235 -3.6517
   30POPC   C35 3984   7.898   0.333   5.230  0.4240 -0.2329 -0.3905
   30POPC   H5X 3985   7.939   0.294   5.325  1.4611 -2.4735 -1.7335
   30POPC   H5Y 3986   0.021   0.388   5.184  1.0761 -0.7097  0.1512
   30POPC   C36 3987   7.849   0.220   5.140 -0.3087  0.0257 -0.3192
   30POPC   H6X 3988   7.751   0.254   5.098 -0.9907 -3.0229 -1.3134
   30POPC   H6Y 3989   7.837   0.127   5.199  1.0973 -0.0238 -0.1092
   30POPC   C37 3990   7.931   0.206   5.012 -0.5178  0.0072 -0.4522
   30POPC   H7X 3991   7.912   0.104   4.973  0.8738 -0.7169  0.7432
   30POPC   H7Y 3992   0.078   0.213   5.034 -0.7956 -1.7488  1.7911
   30POPC   C38 3993   7.904   0.307   4.900  0.3645  0.5482 -0.1846
   30POPC   H8X 3994   7.897   0.407   4.948  3.3063 -0.1088  1.7407
   30POPC   H8Y 3995   7.809   0.286   4.847  1.0375 -0.7904 -0.8791
   30POPC   C39 3996   0.053   0.300   4.794  0.4835  0.4882 -0.1011
   30POPC   H9X 3997   0.149   0.285   4.848  0.4708 -0.6668 -0.3835
   30POPC   H9Y 3998   0.045   0.386   4.725 -0.9351  0.3220 -0.1711
   30POPC  C310 3999   0.044   0.175   4.706 -0.3708  0.4517  0.0308
   30POPC  H10X 4000   7.911   0.167   4.650  0.7552 -0.1268 -1.8971
   30POPC  H10Y 4001   0.062   0.085   4.769 -1.1798  0.6842  0.6010
   30POPC  C311 4002   0.142   0.176   4.589 -0.4601  0.0634 -0.0468
   30POPC  H11X 4003   0.228   0.240   4.620  1.1447 -2.3815  0.7720
   30POPC  H11Y 4004   0.098   0.233   4.505 -0.4956 -0.6897 -0.5507
   30POPC  C312 4005   0.162   0.032   4.539  0.1910  0.3598 -0.6395
   30POPC  H12X 4006   0.165   7.925   4.626 -0.2616  0.6863 -0.3281
   30POPC  H12Y 4007   0.257   0.024   4.482  0.9100  1.0041  0.4423
   30POPC  C313 4008   0.043   7.933   4.464 -0.3334  0.0726  0.3914
   30POPC  H13X 4009   7.911   7.945   4.521 -1.4134 -0.0641 -1.2747
   30POPC  H13Y 4010   0.061   7.824   4.463 -3.2602 -0.4347  0.4410
   30POPC  C314 4011   0.014   0.003   4.318  0.4168 -0.5154  0.1000
   30POPC  H14X 4012   7.954   0.111   4.304 -0.9181 -0.7253  0.3832
   30POPC  H14Y 4013   7.892   7.902   4.279  1.1574 -0.6946 -1.4031
   30POPC  C315 4014   0.136   7.935   4.230  0.2460 -0.5327 -0.1482
   30POPC  H15X 4015   0.154   7.827   4.246 -2.8494 -0.8763  1.5523
   30POPC  H15Y 4016   0.216   0.036   4.274 -1.1383  0.4466  1.0975
   30POPC  C316 4017   0.113   7.959   4.081  0.0002 -0.0611 -0.0379
   30POPC  H16X 4018   0.183   7.900   4.017 -2.2455 -0.7922 -1.8778
   30POPC  H16Y 4019   0.138   0.101   4.054  0.9934 -0.0299  0.7961
   30POPC  H16Z 4020   0.008   7.933   4.058 -0.7192  2.8022 -0.1169
   31POPC     N 4021   0.248   5.981   6.079  0.8615  0.2125 -0.0274
   31POPC   C12 4022   0.182   5.896   6.185  0.0871  0.0628 -0.6260
   31POPC  H12A 4026   0.141   5.964   6.259 -0.6943 -0.8199 -0.2416
   31POPC  H12B 4027   0.257   5.826   6.217  1.2559  0.7360 -1.8182
   31POPC   C13 4023   0.157   6.080   6.010  0.0308 -0.5107  0.0150
   31POPC  H13A 4028   0.196   6.143   5.930 -1.7614 -0.1988 -0.6371
   31POPC  H13B 4029   0.072   6.019   5.982  0.9422 -1.2807 -1.1404
   31POPC  H13C 4030   0.126   6.141   6.094  1.3022  0.9070 -0.5134
   31POPC   C14 4024   0.356   6.068   6.139  0.2528  0.7923  0.2424
   31POPC  H14A 4031   0.434   6.017   6.193  0.2793  0.7913  0.2028
   31POPC  H14B 4032   0.405   6.127   6.063 -0.1262 -0.6535 -1.1514
   31POPC  H14C 4033   0.304   6.142   6.197  1.6464  0.0314  2.5339
   31POPC   C15 4025   0.307   5.891   5.973 -0.2097  0.2995 -0.7038
   31POPC  H15A 4034   0.378   5.823   6.017 -1.2658 -1.3221 -1.4481
   31POPC  H15B 4035   0.360   5.954   5.903 -1.6288  1.6782 -0.5656
   31POPC  H15C 4036   0.234   5.834   5.917 -1.8471  0.4980  1.1728
   31POPC   C11 4037   0.064   5.813   6.135  0.0588 -0.0733 -0.3288
   31POPC  H11A 4038   0.016   5.759   6.220  0.4334  1.7848  1.0993
   31POPC  H11B 4039   0.110   5.738   6.067  0.7410  0.2346 -0.2117
   31POPC     P 4040   7.778   5.911   6.120 -0.0914  0.1220 -0.0652
   31POPC   O13 4041   7.737   6.050   6.089  0.2609  0.0121 -1.0441
   31POPC   O14 4042   7.775   5.874   6.263  0.1934  0.0570 -0.0753
   31POPC   O12 4043   7.927   5.889   6.065  0.0148  0.3450  0.1282
   31POPC   O11 4044   7.700   5.806   6.029 -0.1167  0.2430 -0.1828
   31POPC    C1 4045   7.759   5.682   5.989  0.3579  0.3499  0.1933
   31POPC    HA 4046   7.685   5.608   5.952 -0.0650 -0.0265  1.7527
   31POPC    HB 4047   7.803   5.628   6.076 -0.8078  0.2957  0.7617
   31POPC    C2 4048   7.846   5.689   5.863 -0.1026  0.1586 -0.1348
   31POPC    HS 4049   7.949   5.691   5.905 -0.1628 -0.7818  0.0596
   31POPC   O21 4050   7.820   5.811   5.792 -0.1885 -0.2699 -0.8431
   31POPC   C21 4051   7.924   5.877   5.740 -0.0018  0.2220  0.1462
   31POPC   O22 4052   0.076   5.841   5.763 -0.2111 -0.3910  0.4471
   31POPC   C22 4053   7.888   5.995   5.651  0.4415  0.1105 -0.1831
   31POPC   H2R 4054   7.941   6.083   5.693  1.0242 -0.5358  0.4398
   31POPC   H2S 4055   7.778   6.013   5.650  0.1134 -1.7722 -0.4898
   31POPC    C3 4056   7.838   5.565   5.772 -0.2589  0.2832 -0.2919
   31POPC    HX 4057   7.850   5.478   5.840 -2.2394 -1.3664 -2.0113
   31POPC    HY 4058   7.919   5.566   5.696  0.0980 -4.4527 -0.0965
   31POPC   O31 4059   7.709   5.563   5.712 -0.2761  0.3070 -0.2559
   31POPC   C31 4060   7.642   5.449   5.734 -0.0228  0.1411 -0.3354
   31POPC   O32 4061   7.671   5.348   5.795 -1.0020 -0.2762 -0.5514
   31POPC   C32 4062   7.503   5.454   5.671 -0.3108 -0.0668  0.2762
   31POPC   H2X 4063   7.478   5.549   5.618 -0.4245 -0.7480 -0.9019
   31POPC   H2Y 4064   7.436   5.438   5.758 -1.6122  0.4794 -0.6047
   31POPC   C23 4065   7.960   5.976   5.518  0.0028 -0.3969 -0.3505
   31POPC   H3R 4066   0.106   5.971   5.541  0.2598  0.5085 -1.1104
   31POPC   H3S 4067   7.938   6.067   5.457  0.6227  0.3240  0.4816
   31POPC   C24 4068   7.929   5.850   5.436  0.2414 -0.6634 -0.0315
   31POPC   H4R 4069   0.023   5.764   5.478 -0.9884 -1.2295  0.5478
   31POPC   H4S 4070   0.004   5.871   5.334  3.3846  1.3154  1.4304
   31POPC   C25 4071   7.779   5.817   5.431  0.0487  0.2282 -0.2369
   31POPC   H5R 4072   7.723   5.911   5.413 -0.1506  0.2889  0.6773
   31POPC   H5S 4073   7.743   5.781   5.530 -0.7866  1.4806 -0.0732
   31POPC   C26 4074   7.747   5.706   5.332  0.1320  0.5734 -0.6544
   31POPC   H6R 4075   7.751   5.605   5.379 -4.2588  0.7547  0.3790
   31POPC   H6S 4076   7.815   5.689   5.246  0.7921 -0.9711  0.1547
   31POPC   C27 4077   7.600   5.709   5.289 -0.0922  0.2906  0.0792
   31POPC   H7R 4078   7.585   5.819   5.275 -3.3142 -0.3065 -1.8259
   31POPC   H7S 4079   7.540   5.671   5.374  1.4217 -1.2759  0.4516
   31POPC   C28 4080   7.569   5.632   5.161 -0.2541 -0.2131  0.4217
   31POPC   H8R 4081   7.557   5.528   5.199  1.8765 -0.6564 -0.0301
   31POPC   H8S 4082   7.659   5.632   5.096  0.7588  2.0290  1.7776
   31POPC   C29 4083   7.451   5.679   5.081  0.4151  0.4474 -0.1794
   31POPC   H91 4084   7.429   5.786   5.098 -1.0475 -0.0722  1.3181
   31POPC  C210 4085   7.362   5.606   5.012 -0.0069  0.3967  0.4199
   31POPC  H101 4086   7.273   5.650   4.965  0.9883  1.4851 -0.4665
   31POPC  C211 4087   7.369   5.457   4.994  0.3386  0.4783 -0.1106
   31POPC  H11R 4088   7.272   5.403   5.002 -0.3112  1.5953 -0.3460
   31POPC  H11S 4089   7.425   5.406   5.075  0.4249 -0.1752 -0.5799
   31POPC  C212 4090   7.415   5.413   4.855  0.3000  0.2331 -0.0454
   31POPC  H12R 4091   7.386   5.306   4.846 -1.3922  0.6774 -0.0817
   31POPC  H12S 4092   7.522   5.434   4.835  0.7865 -1.1319  1.0737
   31POPC  C213 4093   7.334   5.473   4.740  0.3932  0.1802 -0.1383
   31POPC  H13R 4094   7.347   5.583   4.737  2.5112 -0.0655 -0.5733
   31POPC  H13S 4095   7.230   5.465   4.778  1.2114 -1.5784  1.8146
   31POPC  C214 4096   7.356   5.415   4.600  0.3220 -0.5595  0.1578
   31POPC  H14R 4097   7.357   5.305   4.617  2.4311 -0.7238 -0.8553
   31POPC  H14S 4098   7.460   5.441   4.571 -0.3921  0.2710 -1.6929
   31POPC  C215 4099   7.252   5.439   4.490  0.1599 -0.0582  0.4220
   31POPC  H15R 4100   7.249   5.550   4.482  2.5294 -0.0440 -0.7831
   31POPC  H15S 4101   7.155   5.408   4.534 -0.7064  0.9998 -0.6820
   31POPC  C216 4102   7.269   5.354   4.365 -0.8591  0.3212  0.0200
   31POPC  H16R 4103   7.243   5.249   4.390  1.0911 -1.0231 -3.2296
   31POPC  H16S 4104   7.371   5.349   4.320 -0.3657  1.7319  0.9504
   31POPC  C217 4105   7.172   5.392   4.253 -0.4097  0.3123 -0.3805
   31POPC  H17R 4106   7.197   5.491   4.209  3.4107 -0.1742  0.5344
   31POPC  H17S 4107   7.084   5.413   4.319  0.9155 -1.1331  1.9238
   31POPC  C218 4108   7.138   5.286   4.149 -0.2049  0.1788 -0.3122
   31POPC  H18R 4109   7.232   5.272   4.092  0.2370  1.2107  0.1481
   31POPC  H18S 4110   7.055   5.320   4.084  0.7240 -1.7732 -2.5699
   31POPC  H18T 4111   7.106   5.186   4.187  1.0020 -0.7807 -1.7880
   31POPC   C33 4112   7.486   5.333   5.579  0.3644  0.1121 -0.0871
   31POPC   H3X 4113   7.487   5.237   5.634  0.1576 -0.4244 -1.0057
   31POPC   H3Y 4114   7.574   5.337   5.511  1.0011 -0.1745  0.7202
   31POPC   C34 4115   7.364   5.325   5.487  0.3942  0.3101 -0.1438
   31POPC   H4X 4116   7.352   5.424   5.436 -1.8922  0.4786  0.6747
   31POPC   H4Y 4117   7.271   5.299   5.542  0.0024  0.6917 -0.6115
   31POPC   C35 4118   7.379   5.208   5.390  0.1077 -0.0302  0.2234
   31POPC   H5X 4119   7.381   5.113   5.447 -1.3233 -0.8287 -0.9911
   31POPC   H5Y 4120   7.476   5.215   5.337  1.4054  2.3615  2.8232
   31POPC   C36 4121   7.261   5.213   5.293 -0.0916 -0.7161  0.4259
   31POPC   H6X 4122   7.286   5.292   5.219  0.9794 -2.5665 -1.2596
   31POPC   H6Y 4123   7.175   5.253   5.351 -0.3689 -1.6645  0.6858
   31POPC   C37 4124   7.231   5.081   5.222  0.5108 -0.4304 -0.3597
   31POPC   H7X 4125   7.130   5.094   5.178  0.5227 -1.9028 -0.8574
   31POPC   H7Y 4126   7.230   4.997   5.295  0.4436  0.0086  0.1434
   31POPC   C38 4127   7.320   5.049   5.101  0.0937 -0.2788 -0.7064
   31POPC   H8X 4128   7.425   5.039   5.134 -0.7494  0.4519  2.2965
   31POPC   H8Y 4129   7.326   5.139   5.036 -0.4987  0.2792 -0.0032
   31POPC   C39 4130   7.270   4.919   5.037  0.1408 -0.8797  0.4679
   31POPC   H9X 4131   7.167   4.947   5.005  1.8162  4.6732 -0.7487
   31POPC   H9Y 4132   7.281   4.838   5.112  1.8630 -0.5530  0.5857
   31POPC  C310 4133   7.345   4.864   4.915  0.2051  0.2250  0.0015
   31POPC  H10X 4134   7.450   4.835   4.934  0.0379 -2.4085 -2.8236
   31POPC  H10Y 4135   7.356   4.948   4.843  0.8255 -0.8883 -1.2099
   31POPC  C311 4136   7.268   4.752   4.845  0.1319  0.1316  0.2292
   31POPC  H11X 4137   7.309   4.755   4.742  2.5285  1.4152  1.1741
   31POPC  H11Y 4138   7.158   4.769   4.847  0.0364 -0.5447  0.9400
   31POPC  C312 4139   7.304   4.611   4.890 -0.4259  0.0991  0.5755
   31POPC  H12X 4140   7.381   4.570   4.822  0.0241 -0.1134  1.2028
   31POPC  H12Y 4141   7.212   4.547   4.889  0.1819 -0.7871 -1.1224
   31POPC  C313 4142   7.360   4.599   5.032 -0.1784  0.0836  0.4757
   31POPC  H13X 4143   7.273   4.647   5.083 -1.2818  0.1233 -1.3926
   31POPC  H13Y 4144   7.452   4.660   5.041 -0.0316  0.2676 -1.9712
   31POPC  C314 4145   7.375   4.457   5.086  0.0252  0.0224  0.2570
   31POPC  H14X 4146   7.434   4.390   5.021  0.7111  0.0357  0.8567
   31POPC  H14Y 4147   7.275   4.409   5.098  0.1485 -0.0421  1.0733
   31POPC  C315 4148   7.422   4.458   5.232  0.2089  0.1663  0.1977
   31POPC  H15X 4149   7.339   4.503   5.291 -1.2846 -1.1941 -0.8068
   31POPC  H15Y 4150   7.509   4.526   5.238  0.7517 -0.4709 -0.3514
   31POPC  C316 4151   7.449   4.319   5.291  0.7016 -0.0791 -0.6042
   31POPC  H16X 4152   7.380   4.247   5.241 -0.9171  1.2200 -0.3187
   31POPC  H16Y 4153   7.413   4.312   5.396 -0.4572 -0.5512 -1.0161
   31POPC  H16Z 4154   7.549   4.272   5.288  0.8849  0.1211  1.6977
   32POPC     N 4155   5.496   4.296   7.074  0.0885 -0.3324  0.0897
   32POPC   C12 4156   5.596   4.304   6.961  0.2932  0.1182  0.3020
   32POPC  H12A 4160   5.677   4.243   6.999 -0.0462 -1.0600 -0.8217
   32POPC  H12B 4161   5.626   4.407   6.953 -0.7284  0.3968 -0.0013
   32POPC   C13 4157   5.405   4.417   7.069  0.3299 -0.1459  0.2255
   32POPC  H13A 4162   5.457   4.511   7.074  2.1753 -1.2457  2.6376
   32POPC  H13B 4163   5.350   4.411   6.976 -1.2303  1.6455  1.0062
   32POPC  H13C 4164   5.333   4.419   7.149 -0.2762  0.3902 -0.3337
   32POPC   C14 4158   5.426   4.162   7.072 -0.1156 -0.2371  0.8909
   32POPC  H14A 4165   5.493   4.077   7.074  1.4759  0.9767 -0.2326
   32POPC  H14B 4166   5.358   4.157   7.156 -2.9740  0.7463 -1.2857
   32POPC  H14C 4167   5.369   4.157   6.981  3.8876 -0.1019 -1.7167
   32POPC   C15 4159   5.578   4.312   7.200  0.6252  0.2599 -0.3333
   32POPC  H15A 4168   5.522   4.291   7.289 -0.7087 -1.0779 -1.4502
   32POPC  H15B 4169   5.621   4.411   7.205  0.7750  0.0888  2.0857
   32POPC  H15C 4170   5.657   4.239   7.186  2.5739  2.1823  0.3993
   32POPC   C11 4171   5.560   4.247   6.824 -0.0755 -0.9925  0.8465
   32POPC  H11A 4172   5.563   4.136   6.829 -0.1951 -1.0231  0.2852
   32POPC  H11B 4173   5.646   4.270   6.756 -0.5419  0.2050  0.6460
   32POPC     P 4174   5.408   4.242   6.626 -0.2452 -0.2426  0.4800
   32POPC   O13 4175   5.322   4.347   6.568  0.6137  0.3608  0.2808
   32POPC   O14 4176   5.362   4.102   6.635 -0.1132 -0.3012  0.2517
   32POPC   O12 4177   5.441   4.304   6.769  0.3820 -0.4326  0.4211
   32POPC   O11 4178   5.544   4.247   6.541 -0.1386  0.6694  0.6965
   32POPC    C1 4179   5.605   4.371   6.506  0.7402  0.0078 -0.1503
   32POPC    HA 4180   5.714   4.352   6.510  0.6967 -0.2255 -0.0351
   32POPC    HB 4181   5.579   4.460   6.568  2.5493  0.3827  0.1183
   32POPC    C2 4182   5.576   4.414   6.361  0.0745 -0.0162 -0.0275
   32POPC    HS 4183   5.468   4.436   6.351 -0.4683 -2.2215  0.7492
   32POPC   O21 4184   5.619   4.313   6.270  0.2890  0.3786 -0.3661
   32POPC   C21 4185   5.518   4.254   6.206  0.1510 -0.0364  0.2263
   32POPC   O22 4186   5.400   4.279   6.226  0.1347  0.6170 -0.6271
   32POPC   C22 4187   5.571   4.155   6.103 -0.0554  0.3874 -0.2886
   32POPC   H2R 4188   5.512   4.061   6.105 -0.9499  0.9452 -0.0800
   32POPC   H2S 4189   5.681   4.142   6.115 -0.0819  1.5851  1.5673
   32POPC    C3 4190   5.648   4.548   6.338  0.3103 -0.1198  0.1117
   32POPC    HX 4191   5.753   4.535   6.372 -0.0859  0.7462  1.7200
   32POPC    HY 4192   5.596   4.629   6.393 -2.4034 -2.9511  1.8850
   32POPC   O31 4193   5.671   4.584   6.201 -0.0800  0.1395  0.1141
   32POPC   C31 4194   5.563   4.620   6.132 -0.2560 -0.4187  0.1008
   32POPC   O32 4195   5.454   4.644   6.181 -0.0931 -0.0901  0.3001
   32POPC   C32 4196   5.600   4.622   5.984 -0.1978  0.2013  0.1233
   32POPC   H2X 4197   5.604   4.515   5.953 -0.9462  0.2065 -0.0088
   32POPC   H2Y 4198   5.694   4.677   5.965  1.9583 -2.9130  1.4495
   32POPC   C23 4199   5.534   4.220   5.969 -0.3982  0.1232 -0.3233
   32POPC   H3R 4200   5.486   4.320   5.977  0.4486  0.2817  5.0876
   32POPC   H3S 4201   5.463   4.149   5.922 -0.9456  1.2721 -1.2403
   32POPC   C24 4202   5.645   4.234   5.865  0.2681 -0.5781  0.2825
   32POPC   H4R 4203   5.730   4.297   5.899  1.6116 -1.8216 -0.7049
   32POPC   H4S 4204   5.586   4.287   5.787 -1.0424 -2.1548  0.1575
   32POPC   C25 4205   5.680   4.100   5.801 -0.6115 -0.3391 -0.7169
   32POPC   H5R 4206   5.592   4.036   5.776  0.1692 -1.5963 -0.2971
   32POPC   H5S 4207   5.737   4.060   5.887 -1.4681  0.8352  0.4177
   32POPC   C26 4208   5.767   4.129   5.679  0.3401  0.9026  0.2515
   32POPC   H6R 4209   5.837   4.048   5.647 -0.2729  1.0433 -1.4822
   32POPC   H6S 4210   5.836   4.213   5.706 -0.3004  0.6279  2.8869
   32POPC   C27 4211   5.686   4.166   5.555  0.4154  0.1156 -0.0347
   32POPC   H7R 4212   5.637   4.263   5.578  2.1522  1.0685 -0.2203
   32POPC   H7S 4213   5.617   4.082   5.531 -0.8195  1.4404 -1.2282
   32POPC   C28 4214   5.778   4.167   5.432  0.0978  0.4955 -0.2708
   32POPC   H8R 4215   5.792   4.062   5.398  0.9039  0.8830 -1.1494
   32POPC   H8S 4216   5.867   4.225   5.464 -0.0501  1.2329 -1.1842
   32POPC   C29 4217   5.708   4.245   5.325 -0.1186  0.2793 -0.2871
   32POPC   H91 4218   5.709   4.350   5.359  0.7518 -0.5088  2.1650
   32POPC  C210 4219   5.666   4.207   5.204  0.0310  0.1323 -0.2924
   32POPC  H101 4220   5.615   4.278   5.137 -0.2785  0.3149  0.1334
   32POPC  C211 4221   5.670   4.066   5.150 -0.1482  0.0752 -0.1588
   32POPC  H11R 4222   5.572   4.038   5.106 -1.0300 -0.0081  1.7912
   32POPC  H11S 4223   5.682   3.989   5.229 -2.1436  0.5304  0.6330
   32POPC  C212 4224   5.787   4.040   5.055 -0.0533  0.0515 -0.0324
   32POPC  H12R 4225   5.882   4.042   5.114  0.6492 -0.1650 -1.1540
   32POPC  H12S 4226   5.801   4.117   4.976  2.7500 -0.0506  0.3073
   32POPC  C213 4227   5.778   3.903   4.988 -0.3762  0.1223 -0.1324
   32POPC  H13R 4228   5.730   3.829   5.056  1.0730 -1.3234 -0.6423
   32POPC  H13S 4229   5.872   3.860   4.947  0.6140  0.1967  1.9857
   32POPC  C214 4230   5.697   3.922   4.860 -0.7509 -0.1466  0.0642
   32POPC  H14R 4231   5.736   4.004   4.796 -1.7079  0.7731  0.6422
   32POPC  H14S 4232   5.594   3.956   4.887 -1.9601 -1.6938 -2.3909
   32POPC  C215 4233   5.689   3.790   4.782 -0.6046  0.3295 -0.7662
   32POPC  H15R 4234   5.584   3.776   4.750 -0.5424  0.5215 -1.0517
   32POPC  H15S 4235   5.713   3.700   4.843 -0.6874  0.7559 -0.0931
   32POPC  C216 4236   5.788   3.781   4.666 -0.0805 -0.4194 -0.2667
   32POPC  H16R 4237   5.896   3.787   4.692  0.5044 -0.0145 -2.6879
   32POPC  H16S 4238   5.772   3.871   4.604 -0.5105 -1.2987 -1.4511
   32POPC  C217 4239   5.758   3.657   4.581  0.0516 -0.3990 -0.3434
   32POPC  H17R 4240   5.774   3.565   4.640 -1.1029 -2.0908 -2.5947
   32POPC  H17S 4241   5.832   3.622   4.505 -0.6034  0.6782 -1.5036
   32POPC  C218 4242   5.624   3.664   4.509  0.0242  0.5123 -0.2130
   32POPC  H18R 4243   5.609   3.567   4.456 -0.3940  0.5511 -0.1747
   32POPC  H18S 4244   5.618   3.758   4.449 -0.3451  1.5159  1.3775
   32POPC  H18T 4245   5.539   3.666   4.581  1.7594 -0.1488  1.8897
   32POPC   C33 4246   5.487   4.696   5.911 -0.0698  0.0110 -0.2680
   32POPC   H3X 4247   5.485   4.798   5.956 -1.2607  0.3215 -1.0020
   32POPC   H3Y 4248   5.397   4.634   5.931  0.1878 -0.8787 -1.8216
   32POPC   C34 4249   5.530   4.731   5.768 -0.3753 -0.0331 -0.3708
   32POPC   H4X 4250   5.623   4.790   5.776  0.5899 -1.5904  0.2922
   32POPC   H4Y 4251   5.452   4.789   5.715  0.2031  1.2528  0.1594
   32POPC   C35 4252   5.553   4.613   5.674 -0.0297  0.2210 -0.6066
   32POPC   H5X 4253   5.635   4.547   5.710 -1.4904 -1.2218  0.1858
   32POPC   H5Y 4254   5.575   4.658   5.575 -1.4963 -0.5083 -1.2807
   32POPC   C36 4255   5.426   4.531   5.649 -0.0118 -0.1089  0.3706
   32POPC   H6X 4256   5.347   4.609   5.646  0.3465  0.2113 -0.8205
   32POPC   H6Y 4257   5.409   4.471   5.741  1.1252 -1.2897 -0.1836
   32POPC   C37 4258   5.419   4.444   5.524 -0.4226 -0.1984  0.4570
   32POPC   H7X 4259   5.516   4.392   5.509 -1.1667 -1.5489  0.1911
   32POPC   H7Y 4260   5.413   4.517   5.441  1.2560  1.6293  1.9048
   32POPC   C38 4261   5.299   4.349   5.520 -0.1064 -0.6154  0.8346
   32POPC   H8X 4262   5.201   4.400   5.532 -0.0207 -0.6814  1.8830
   32POPC   H8Y 4263   5.312   4.282   5.609 -2.6516 -0.4210  1.3957
   32POPC   C39 4264   5.303   4.255   5.399  0.1793  0.6126 -0.1096
   32POPC   H9X 4265   5.249   4.161   5.424 -0.5105  0.5935 -1.6129
   32POPC   H9Y 4266   5.404   4.222   5.368  0.2148  0.2422  0.4049
   32POPC  C310 4267   5.234   4.320   5.279 -0.8237 -0.5011 -0.1431
   32POPC  H10X 4268   5.284   4.417   5.255 -3.0417 -0.2242 -4.1702
   32POPC  H10Y 4269   5.129   4.333   5.311 -1.0004 -0.2624 -0.7986
   32POPC  C311 4270   5.231   4.225   5.159  0.4405 -0.6062 -0.1023
   32POPC  H11X 4271   5.163   4.141   5.186  1.5456 -1.2228  0.7831
   32POPC  H11Y 4272   5.334   4.186   5.149 -0.0456 -1.6220 -1.3398
   32POPC  C312 4273   5.176   4.291   5.033  0.4058 -0.1101  0.1701
   32POPC  H12X 4274   5.079   4.342   5.051  1.3451  2.9867 -2.9828
   32POPC  H12Y 4275   5.146   4.209   4.964  2.1896 -0.5420 -0.0976
   32POPC  C313 4276   5.269   4.394   4.969  0.1986  0.0409  0.1091
   32POPC  H13X 4277   5.371   4.350   4.967  1.1566  1.9443  2.8922
   32POPC  H13Y 4278   5.281   4.478   5.040  0.8493 -0.9697  1.2212
   32POPC  C314 4279   5.218   4.430   4.830 -0.6040 -0.9535  0.1410
   32POPC  H14X 4280   5.197   4.330   4.786 -0.7985 -0.5465 -0.7025
   32POPC  H14Y 4281   5.300   4.479   4.773 -1.5802  0.4599 -0.0946
   32POPC  C315 4282   5.110   4.539   4.825  0.1787 -0.1580  0.3266
   32POPC  H15X 4283   5.033   4.523   4.904  0.3889 -2.1945  0.1666
   32POPC  H15Y 4284   5.064   4.540   4.723 -0.5548  0.1092  0.6602
   32POPC  C316 4285   5.188   4.667   4.849  0.7374 -0.4528  0.1083
   32POPC  H16X 4286   5.278   4.671   4.784 -0.0789 -4.7951 -1.4315
   32POPC  H16Y 4287   5.213   4.672   4.957 -0.7048 -1.0719  0.4784
   32POPC  H16Z 4288   5.116   4.751   4.834 -0.6859 -1.7640 -0.5532
   33POPC     N 4289   5.242   0.977   6.712 -0.1514  0.2290 -0.2012
   33POPC   C12 4290   5.190   1.075   6.609  0.2142  0.8862  0.2416
   33POPC  H12A 4294   5.255   1.162   6.607  0.3267  0.7753 -2.9033
   33POPC  H12B 4295   5.088   1.101   6.634  0.0682  2.6785 -2.1417
   33POPC   C13 4291   5.197   0.835   6.686 -0.5190  0.2849  0.1313
   33POPC  H13A 4296   5.247   0.803   6.596 -0.2992  1.3985 -0.1526
   33POPC  H13B 4297   5.224   0.766   6.764  1.9559  0.2574 -0.6937
   33POPC  H13C 4298   5.090   0.834   6.669 -0.7282 -2.7034  1.3719
   33POPC   C14 4292   5.393   0.985   6.708 -0.1807  0.5025 -0.8271
   33POPC  H14A 4299   5.425   0.967   6.606  1.3853 -1.7087  0.0026
   33POPC  H14B 4300   5.435   1.079   6.741  0.9911 -0.2072 -0.2528
   33POPC  H14C 4301   5.436   0.904   6.765  0.5371  1.4084 -0.0733
   33POPC   C15 4293   5.194   1.032   6.843  0.5864  0.1764  0.0953
   33POPC  H15A 4302   5.203   1.140   6.836 -0.2482  0.3274  1.1266
   33POPC  H15B 4303   5.236   0.998   6.937 -0.6021  2.0172  1.3452
   33POPC  H15C 4304   5.087   1.015   6.851  0.5898  1.0981  2.6554
   33POPC   C11 4305   5.200   1.023   6.466 -0.1532  0.3194  0.4184
   33POPC  H11A 4306   5.172   1.109   6.400  0.4578 -0.0243 -0.2980
   33POPC  H11B 4307   5.116   0.951   6.455  0.0443  0.2570 -0.7905
   33POPC     P 4308   5.359   0.967   6.278 -0.1069 -0.0538  0.2991
   33POPC   O13 4309   5.478   0.882   6.256 -0.5195 -0.5222 -0.1446
   33POPC   O14 4310   5.369   1.109   6.238 -0.2952 -0.1878 -0.2213
   33POPC   O12 4311   5.330   0.973   6.435 -0.3485 -0.0902  0.2555
   33POPC   O11 4312   5.229   0.901   6.212  0.1615 -0.3356  0.0514
   33POPC    C1 4313   5.210   0.760   6.213  0.6124 -0.3932  0.4606
   33POPC    HA 4314   5.107   0.730   6.184  0.3134 -0.5828  1.6953
   33POPC    HB 4315   5.227   0.730   6.319  1.4627  3.3664  1.4505
   33POPC    C2 4316   5.305   0.687   6.117 -0.2278  0.2507 -0.8697
   33POPC    HS 4317   5.393   0.666   6.182 -2.0187  0.6669  1.7483
   33POPC   O21 4318   5.329   0.771   6.004  0.1516  0.6167 -0.5171
   33POPC   C21 4319   5.452   0.752   5.957  0.1746 -0.6598  0.0633
   33POPC   O22 4320   5.533   0.673   6.004 -0.0153 -0.4805  0.6946
   33POPC   C22 4321   5.484   0.834   5.833 -0.3211 -0.5101  0.0345
   33POPC   H2R 4322   5.466   0.942   5.849  0.7093 -0.1506 -1.1333
   33POPC   H2S 4323   5.408   0.799   5.760  0.2043 -2.2152  0.2683
   33POPC    C3 4324   5.249   0.552   6.068  0.6168 -0.4742  0.1355
   33POPC    HX 4325   5.195   0.517   6.159 -1.6166 -1.2234 -1.4324
   33POPC    HY 4326   5.332   0.481   6.048  1.5946  0.2260  1.6078
   33POPC   O31 4327   5.150   0.578   5.968  0.0919 -0.0195  0.7684
   33POPC   C31 4328   5.192   0.547   5.845 -0.4666 -0.3485  0.6579
   33POPC   O32 4329   5.305   0.509   5.820 -0.2629  0.5050  0.2694
   33POPC   C32 4330   5.077   0.579   5.751  0.0954 -0.7813 -0.1741
   33POPC   H2X 4331   5.080   0.681   5.706 -1.8997 -0.7658 -0.2956
   33POPC   H2Y 4332   4.983   0.573   5.809  1.3143 -3.1074  1.6339
   33POPC   C23 4333   5.628   0.811   5.787 -0.2348  0.4365 -0.1709
   33POPC   H3R 4334   5.654   0.703   5.783  0.1665  0.5616 -1.2368
   33POPC   H3S 4335   5.696   0.866   5.856 -0.4271  2.1350 -1.2967
   33POPC   C24 4336   5.652   0.888   5.657 -0.1630 -0.4676 -0.6961
   33POPC   H4R 4337   5.608   0.990   5.665 -1.6797 -1.0817 -1.0141
   33POPC   H4S 4338   5.592   0.836   5.579 -0.2728  0.2828 -1.1149
   33POPC   C25 4339   5.800   0.891   5.620 -0.0037  0.2232 -0.0245
   33POPC   H5R 4340   5.823   0.784   5.598 -1.2133 -0.3522  1.4599
   33POPC   H5S 4341   5.859   0.930   5.706  0.0986  1.2179 -0.5409
   33POPC   C26 4342   5.831   0.971   5.493  0.5040 -0.2166 -0.1809
   33POPC   H6R 4343   5.942   0.966   5.495  0.6931  2.5138 -1.4904
   33POPC   H6S 4344   5.793   1.073   5.511 -0.0252 -0.4195 -0.1357
   33POPC   C27 4345   5.779   0.908   5.364 -0.0376 -0.3747  0.1139
   33POPC   H7R 4346   5.669   0.890   5.367 -0.2691  0.5889 -1.8850
   33POPC   H7S 4347   5.823   0.807   5.348 -1.5827 -1.1253  0.4312
   33POPC   C28 4348   5.808   1.004   5.249 -0.7009  0.1560  0.3857
   33POPC   H8R 4349   5.904   1.059   5.263  0.2838 -0.9988 -1.5974
   33POPC   H8S 4350   5.722   1.074   5.238  1.0462  2.3318  0.3233
   33POPC   C29 4351   5.810   0.936   5.115 -0.3940  0.3568  0.2874
   33POPC   H91 4352   5.804   0.826   5.118  0.9757  0.2256 -1.1371
   33POPC  C210 4353   5.793   0.983   4.991  0.4704  0.0492  0.0504
   33POPC  H101 4354   5.803   0.910   4.909 -0.2685  0.7014 -0.6321
   33POPC  C211 4355   5.780   1.129   4.956 -0.1437 -0.1085 -0.3835
   33POPC  H11R 4356   5.833   1.196   5.026  0.4468 -0.9638  0.0041
   33POPC  H11S 4357   5.675   1.161   4.977  0.1126 -1.1970  2.9854
   33POPC  C212 4358   5.824   1.160   4.813  0.0533  0.3887 -0.2138
   33POPC  H12R 4359   5.749   1.114   4.745  1.1525  1.3996 -2.1623
   33POPC  H12S 4360   5.917   1.104   4.789  0.1088  1.1025 -1.7302
   33POPC  C213 4361   5.851   1.308   4.784  0.1238  0.4302  0.0620
   33POPC  H13R 4362   5.941   1.332   4.844  0.5238  3.0907 -1.5140
   33POPC  H13S 4363   5.767   1.357   4.838  1.2444  0.4889  1.7742
   33POPC  C214 4364   5.844   1.347   4.637  0.0364  0.1823 -0.0011
   33POPC  H14R 4365   5.890   1.446   4.617  0.7041 -0.0874  0.1944
   33POPC  H14S 4366   5.735   1.357   4.614  0.5294 -0.0468 -2.6038
   33POPC  C215 4367   5.907   1.255   4.533  0.8872  0.6906  0.0604
   33POPC  H15R 4368   5.881   1.147   4.535 -2.7993  1.5464  1.9348
   33POPC  H15S 4369   6.016   1.253   4.553  0.7206 -2.0866  0.9725
   33POPC  C216 4370   5.888   1.317   4.394 -0.2463 -0.7332 -0.4353
   33POPC  H16R 4371   5.922   1.423   4.391 -1.4615 -0.3748 -2.6231
   33POPC  H16S 4372   5.780   1.330   4.374 -0.2510  1.6003  0.8879
   33POPC  C217 4373   5.970   1.255   4.281  0.2665  0.0919 -0.5208
   33POPC  H17R 4374   5.955   1.145   4.278  0.9369 -0.0502  0.9445
   33POPC  H17S 4375   6.073   1.266   4.321 -0.5192  1.1653  1.2759
   33POPC  C218 4376   5.954   1.323   4.145 -0.6185 -0.0487 -0.4915
   33POPC  H18R 4377   6.016   1.415   4.153 -2.2968  1.0430  0.3537
   33POPC  H18S 4378   5.848   1.348   4.122 -0.5069 -0.7341 -1.8066
   33POPC  H18T 4379   5.993   1.268   4.057 -0.8090 -0.1832 -0.4932
   33POPC   C33 4380   5.080   0.480   5.634 -0.3552 -0.4618 -0.4603
   33POPC   H3X 4381   5.044   0.385   5.680 -1.1379  0.4022  0.7427
   33POPC   H3Y 4382   5.184   0.462   5.599 -0.2976 -0.5062 -0.2687
   33POPC   C34 4383   5.014   0.529   5.505  0.3296  0.2248 -0.5481
   33POPC   H4X 4384   5.050   0.630   5.476 -1.0435  0.7997 -0.2797
   33POPC   H4Y 4385   4.905   0.541   5.524  0.1600 -1.8171 -0.1716
   33POPC   C35 4386   5.013   0.419   5.400  0.8472  0.0324 -0.3520
   33POPC   H5X 4387   4.975   0.323   5.442  0.4095  0.1555 -0.4746
   33POPC   H5Y 4388   5.116   0.403   5.360  1.5349  2.0349  0.5472
   33POPC   C36 4389   4.927   0.458   5.280  0.2772 -0.2653 -0.0393
   33POPC   H6X 4390   4.826   0.496   5.303  0.8033  1.2056 -0.1303
   33POPC   H6Y 4391   4.977   0.541   5.226  1.8114 -0.8849  0.3914
   33POPC   C37 4392   4.912   0.341   5.182 -0.5924  0.1109 -0.3591
   33POPC   H7X 4393   4.848   0.267   5.235 -2.1628  1.3775 -0.4399
   33POPC   H7Y 4394   5.018   0.312   5.163  0.1705  2.5804 -0.0013
   33POPC   C38 4395   4.849   0.379   5.047 -0.7183 -0.2838 -0.4123
   33POPC   H8X 4396   4.901   0.469   5.009 -0.2128 -0.3921  0.0179
   33POPC   H8Y 4397   4.745   0.407   5.073 -0.8081 -2.4245  1.7877
   33POPC   C39 4398   4.852   0.269   4.941  0.2874 -0.4106 -0.2594
   33POPC   H9X 4399   4.780   0.194   4.980  0.5115  0.2680  1.4700
   33POPC   H9Y 4400   4.942   0.205   4.930 -0.2349 -1.2727  0.4450
   33POPC  C310 4401   4.807   0.315   4.802  0.7005 -0.0607 -0.2789
   33POPC  H10X 4402   4.877   0.391   4.761 -2.1851  2.5541 -0.4759
   33POPC  H10Y 4403   4.704   0.354   4.815  0.9535 -0.3872  3.1755
   33POPC  C311 4404   4.795   0.196   4.706 -0.3509 -0.0342 -0.1773
   33POPC  H11X 4405   4.734   0.110   4.742 -1.0987  1.0561  1.2040
   33POPC  H11Y 4406   4.901   0.168   4.688 -0.0604  0.6691  0.4270
   33POPC  C312 4407   4.727   0.216   4.570  0.2185 -0.6139 -0.5513
   33POPC  H12X 4408   4.616   0.224   4.579  0.3716  0.2947  0.8434
   33POPC  H12Y 4409   4.748   0.137   4.496 -1.4631 -0.7560 -0.9117
   33POPC  C313 4410   4.780   0.347   4.511  0.1134 -0.2607  0.1276
   33POPC  H13X 4411   4.887   0.330   4.484 -0.3842  0.2774 -2.2521
   33POPC  H13Y 4412   4.771   0.430   4.585 -1.2477 -0.4761  0.2025
   33POPC  C314 4413   4.711   0.390   4.382 -0.1996 -0.5513  0.1951
   33POPC  H14X 4414   4.759   0.485   4.347  1.1089 -1.8567 -1.6680
   33POPC  H14Y 4415   4.607   0.413   4.410  0.0455  0.1807  0.5295
   33POPC  C315 4416   4.729   0.288   4.269  0.2286 -0.4427  0.1632
   33POPC  H15X 4417   4.658   0.206   4.294  0.5248 -0.2973  1.5505
   33POPC  H15Y 4418   4.834   0.252   4.281  0.7368  0.4504 -1.5295
   33POPC  C316 4419   4.691   0.332   4.128 -0.8568 -0.1088  0.5533
   33POPC  H16X 4420   4.689   0.250   4.053  0.8334 -1.1199  1.5745
   33POPC  H16Y 4421   4.753   0.420   4.099 -1.5030  0.2394  0.2296
   33POPC  H16Z 4422   4.590   0.377   4.128 -1.6041 -1.6944 -1.6347
   34POPC     N 4423   4.869   3.637   6.185 -0.0056  0.0421  0.5341
   34POPC   C12 4424   4.883   3.780   6.138  0.5409 -0.1270  0.1779
   34POPC  H12A 4428   4.919   3.766   6.037 -0.7683  1.6855 -0.5692
   34POPC  H12B 4429   4.971   3.822   6.185  0.1824  1.9916 -1.0026
   34POPC   C13 4425   5.001   3.565   6.177  0.0865  0.2542  0.1374
   34POPC  H13A 4430   4.987   3.458   6.187  0.5717  0.2196  0.4722
   34POPC  H13B 4431   5.057   3.599   6.091  2.6600  1.1637  2.1204
   34POPC  H13C 4432   5.059   3.593   6.263  1.4878 -2.2100  0.0431
   34POPC   C14 4426   4.823   3.636   6.329  0.2471  0.3178  0.6175
   34POPC  H14A 4433   4.807   3.536   6.366  0.4164  0.0644  0.0060
   34POPC  H14B 4434   4.885   3.699   6.391 -1.0857  3.9209 -1.5819
   34POPC  H14C 4435   4.730   3.692   6.328 -0.2439 -0.4813  1.0359
   34POPC   C15 4427   4.762   3.567   6.105  0.2573 -0.3208  0.5040
   34POPC  H15A 4436   4.791   3.559   6.001 -1.6467  0.2996 -0.0945
   34POPC  H15B 4437   4.669   3.621   6.110 -0.2634 -1.2021  0.5545
   34POPC  H15C 4438   4.752   3.465   6.140  1.2448  0.2180  2.4491
   34POPC   C11 4439   4.764   3.876   6.140  0.3525 -0.3493 -0.2387
   34POPC  H11A 4440   4.799   3.971   6.093  1.9233 -0.8219 -0.0530
   34POPC  H11B 4441   4.739   3.895   6.247 -1.5733  0.3759 -0.7971
   34POPC     P 4442   4.520   3.885   6.108  0.0491 -0.4560  0.3066
   34POPC   O13 4443   4.537   4.029   6.140 -0.1164 -0.2742 -0.4169
   34POPC   O14 4444   4.447   3.804   6.208 -0.1899  0.0525  0.5512
   34POPC   O12 4445   4.658   3.819   6.063  0.0952 -0.1131 -0.0628
   34POPC   O11 4446   4.424   3.885   5.980  0.1312  0.3333  0.2371
   34POPC    C1 4447   4.371   3.760   5.933  0.1515  0.4833 -0.1869
   34POPC    HA 4448   4.267   3.761   5.973  0.0941  0.0406 -0.3308
   34POPC    HB 4449   4.426   3.682   5.990  2.6975  3.3748  1.4846
   34POPC    C2 4450   4.376   3.744   5.780 -0.2740  0.5031 -0.2032
   34POPC    HS 4451   4.348   3.639   5.761 -1.9877  0.8171  0.5063
   34POPC   O21 4452   4.503   3.797   5.740 -0.0908 -0.0332 -0.3315
   34POPC   C21 4453   4.589   3.699   5.712 -0.1483 -0.1637 -0.0471
   34POPC   O22 4454   4.565   3.580   5.726  0.4194 -0.2230  0.4644
   34POPC   C22 4455   4.725   3.755   5.674 -0.0390 -0.0751  0.4638
   34POPC   H2R 4456   4.785   3.766   5.766 -0.0778 -0.8527  0.5865
   34POPC   H2S 4457   4.719   3.856   5.627  0.6062  0.2597  1.1105
   34POPC    C3 4458   4.259   3.831   5.731 -0.7575 -0.0798 -0.0832
   34POPC    HX 4459   4.226   3.909   5.802 -1.5689  0.3942 -0.9699
   34POPC    HY 4460   4.170   3.764   5.726 -0.0349 -1.1543  1.1965
   34POPC   O31 4461   4.275   3.883   5.598  0.4206 -0.0963  0.0425
   34POPC   C31 4462   4.320   4.008   5.601  0.0551  0.0385 -0.1012
   34POPC   O32 4463   4.368   4.067   5.696  0.3634 -0.0694 -0.1875
   34POPC   C32 4464   4.335   4.065   5.460 -0.0491 -0.4645 -0.3167
   34POPC   H2X 4465   4.237   4.110   5.431  0.1147  0.6747  0.8021
   34POPC   H2Y 4466   4.368   3.987   5.389  2.0196 -0.6539  0.8016
   34POPC   C23 4467   4.798   3.661   5.578  0.0855  0.6909 -0.1943
   34POPC   H3R 4468   4.793   3.555   5.609  0.4778  1.5849  3.1450
   34POPC   H3S 4469   4.906   3.687   5.588  0.5170 -0.3102 -2.1128
   34POPC   C24 4470   4.754   3.693   5.435 -0.1944  0.5958 -0.1294
   34POPC   H4R 4471   4.717   3.798   5.430  0.3134  0.7743 -0.1098
   34POPC   H4S 4472   4.669   3.625   5.413 -0.3062  1.4727 -2.6231
   34POPC   C25 4473   4.863   3.662   5.332 -0.4939  0.1675 -0.3194
   34POPC   H5R 4474   4.929   3.580   5.367  1.7817  1.9579 -0.2562
   34POPC   H5S 4475   4.926   3.751   5.310 -0.6498  0.0243 -1.3852
   34POPC   C26 4476   4.806   3.608   5.201 -0.4024 -0.2674 -0.1820
   34POPC   H6R 4477   4.740   3.674   5.141  0.1961 -0.4543 -1.0586
   34POPC   H6S 4478   4.755   3.513   5.226  0.6321 -0.9288 -0.5665
   34POPC   C27 4479   4.913   3.560   5.102  0.1233 -0.0869  0.2940
   34POPC   H7R 4480   4.967   3.481   5.158  1.8901  1.3335  0.6320
   34POPC   H7S 4481   4.979   3.641   5.065 -0.0373 -0.1211 -0.0743
   34POPC   C28 4482   4.856   3.485   4.981 -0.1973  0.1258  0.3111
   34POPC   H8R 4483   4.793   3.555   4.923  0.5853 -0.0531 -0.7760
   34POPC   H8S 4484   4.795   3.400   5.017 -0.2174  0.2352  0.5369
   34POPC   C29 4485   4.969   3.444   4.891 -0.3842  0.2476  0.0216
   34POPC   H91 4486   5.067   3.453   4.939 -0.1936 -0.0846 -0.3014
   34POPC  C210 4487   4.961   3.382   4.772  0.0934 -0.1821  0.2103
   34POPC  H101 4488   5.052   3.343   4.725 -0.2409 -0.4507 -0.2168
   34POPC  C211 4489   4.832   3.358   4.698  0.3215 -0.9044  0.0463
   34POPC  H11R 4490   4.757   3.433   4.730  1.0374 -0.8506  1.6602
   34POPC  H11S 4491   4.783   3.264   4.730 -0.5608 -0.1411  0.9501
   34POPC  C212 4492   4.842   3.359   4.545 -0.2944  0.3351  0.0150
   34POPC  H12R 4493   4.865   3.463   4.512  0.4375 -0.5165 -2.1750
   34POPC  H12S 4494   4.741   3.344   4.502 -0.0346  0.4488 -0.6464
   34POPC  C213 4495   4.941   3.255   4.495  0.2739  0.7599  0.2479
   34POPC  H13R 4496   4.918   3.152   4.530  3.0889  0.1268  0.3907
   34POPC  H13S 4497   5.043   3.270   4.538  0.8148 -0.8168 -0.4286
   34POPC  C214 4498   4.959   3.247   4.343 -0.1344  0.6512  0.2074
   34POPC  H14R 4499   4.859   3.261   4.295  0.5895  3.2921 -0.6225
   34POPC  H14S 4500   5.005   3.152   4.310  0.2570  0.5023  1.1632
   34POPC  C215 4501   5.053   3.357   4.294  0.2520  0.2320  0.0102
   34POPC  H15R 4502   5.145   3.345   4.355  1.3176 -2.9101 -2.0848
   34POPC  H15S 4503   4.996   3.448   4.321  1.9814  1.8950 -1.7587
   34POPC  C216 4504   5.094   3.351   4.147 -0.0980  0.0068 -0.0791
   34POPC  H16R 4505   5.153   3.444   4.133  1.0144 -0.4939  1.1616
   34POPC  H16S 4506   5.005   3.358   4.081 -0.5887  0.4264  0.6322
   34POPC  C217 4507   5.185   3.231   4.117  0.2447  0.2594 -0.0498
   34POPC  H17R 4508   5.132   3.135   4.134 -0.5271  0.6787 -0.0429
   34POPC  H17S 4509   5.278   3.243   4.178  0.2243  2.1722 -0.3728
   34POPC  C218 4510   5.227   3.235   3.970  0.7016  0.2777  0.0799
   34POPC  H18R 4511   5.288   3.145   3.953  2.0935  1.2927 -0.3948
   34POPC  H18S 4512   5.272   3.334   3.946 -1.2020  1.0618 -0.3890
   34POPC  H18T 4513   5.141   3.216   3.903  0.7616 -1.4590  0.4718
   34POPC   C33 4514   4.435   4.181   5.470 -0.7615  0.1051  0.2573
   34POPC   H3X 4515   4.533   4.139   5.501 -0.9161  0.0358  0.6647
   34POPC   H3Y 4516   4.399   4.259   5.540  0.1830  1.5560 -0.8623
   34POPC   C34 4517   4.460   4.252   5.337 -0.5893  0.5110  0.5045
   34POPC   H4X 4518   4.510   4.177   5.271  0.8117 -0.0733  2.1786
   34POPC   H4Y 4519   4.535   4.334   5.340 -1.2390  1.0990  0.8237
   34POPC   C35 4520   4.334   4.305   5.270 -0.4832  0.5286  0.3210
   34POPC   H5X 4521   4.278   4.215   5.238 -3.9022  2.0012  1.8613
   34POPC   H5Y 4522   4.360   4.352   5.173 -0.2401 -0.0479  0.1103
   34POPC   C36 4523   4.245   4.405   5.346  0.1075  0.9148  0.5079
   34POPC   H6X 4524   4.203   4.358   5.437 -0.4024  0.5819  0.1047
   34POPC   H6Y 4525   4.157   4.425   5.281  0.9845  0.1705 -0.9630
   34POPC   C37 4526   4.319   4.535   5.376  0.7002  0.6275  0.3013
   34POPC   H7X 4527   4.332   4.589   5.280 -1.4145  1.3718  0.4098
   34POPC   H7Y 4528   4.413   4.511   5.430  1.3157  0.6997 -0.7281
   34POPC   C38 4529   4.223   4.616   5.464  0.3772  0.4888  0.0758
   34POPC   H8X 4530   4.255   4.592   5.567  2.2202  0.6216 -0.4382
   34POPC   H8Y 4531   4.117   4.585   5.461  0.1722  1.2365 -0.6264
   34POPC   C39 4532   4.234   4.764   5.427  0.1550  0.5603  0.2972
   34POPC   H9X 4533   4.148   4.818   5.473 -0.4926 -0.1383 -0.0784
   34POPC   H9Y 4534   4.212   4.763   5.318 -0.1859 -1.1816  0.3657
   34POPC  C310 4535   4.372   4.823   5.456  0.4126  0.2875 -0.3715
   34POPC  H10X 4536   4.450   4.756   5.414  1.2557  0.7013  0.5310
   34POPC  H10Y 4537   4.394   4.848   5.562  0.4914 -1.7966  0.1168
   34POPC  C311 4538   4.390   4.960   5.389 -1.0715  0.7694  0.2047
   34POPC  H11X 4539   4.479   5.014   5.427 -0.9735 -0.7305  2.2344
   34POPC  H11Y 4540   4.302   5.028   5.398 -1.9403 -0.5541  2.1628
   34POPC  C312 4541   4.425   4.954   5.241 -0.2639  0.2423  0.4136
   34POPC  H12X 4542   4.341   4.902   5.191 -0.6522  2.2609 -1.1040
   34POPC  H12Y 4543   4.518   4.894   5.225  1.1756  2.5872 -0.3247
   34POPC  C313 4544   4.447   5.091   5.176 -0.3031  0.2922  0.5061
   34POPC  H13X 4545   4.455   5.070   5.067 -0.7920 -0.6297  0.6384
   34POPC  H13Y 4546   4.541   5.134   5.217 -0.3148  1.1384 -0.3405
   34POPC  C314 4547   4.340   5.198   5.201 -0.0576  0.5363  0.5190
   34POPC  H14X 4548   4.371   5.298   5.164  3.7292 -0.1791  1.5316
   34POPC  H14Y 4549   4.313   5.212   5.307 -1.2218  2.1860  0.0255
   34POPC  C315 4550   4.209   5.169   5.128  0.5118 -0.2679 -0.1983
   34POPC  H15X 4551   4.145   5.255   5.157  0.5630  0.0291 -0.9444
   34POPC  H15Y 4552   4.154   5.076   5.157 -1.9640  1.3481  0.4636
   34POPC  C316 4553   4.211   5.174   4.975 -0.4221 -0.5697 -0.2272
   34POPC  H16X 4554   4.111   5.144   4.937 -1.1981  2.3631 -0.6528
   34POPC  H16Y 4555   4.279   5.095   4.938  0.0225 -0.2177 -0.1743
   34POPC  H16Z 4556   4.242   5.274   4.937 -1.2568 -0.4047 -0.4803
   35POPC     N 4557   3.944   0.724   6.274 -0.0505 -0.0142 -0.3277
   35POPC   C12 4558   3.944   0.854   6.198  0.3528  0.2586  0.1400
   35POPC  H12A 4562   3.877   0.926   6.242 -0.6450 -0.2537 -0.5242
   35POPC  H12B 4563   3.895   0.819   6.109  2.0284 -0.7751 -0.4002
   35POPC   C13 4559   3.804   0.709   6.328 -0.1100  0.2418 -0.4104
   35POPC  H13A 4564   3.777   0.606   6.345  0.1925 -0.3277 -3.2044
   35POPC  H13B 4565   3.811   0.753   6.426  2.7043  0.0197 -0.4812
   35POPC  H13C 4566   3.735   0.759   6.262 -1.6446 -0.1628  0.8571
   35POPC   C14 4560   3.970   0.611   6.177  0.5138 -0.2551  0.1023
   35POPC  H14A 4567   3.973   0.523   6.240 -0.5117  0.0750  0.6297
   35POPC  H14B 4568   3.891   0.603   6.103 -1.0934 -0.7746  1.8347
   35POPC  H14C 4569   4.067   0.612   6.130  0.6616  0.8492  0.4377
   35POPC   C15 4561   4.044   0.710   6.386 -0.0999  0.2780 -0.2483
   35POPC  H15A 4570   4.024   0.620   6.441 -2.0827  0.4927 -0.5939
   35POPC  H15B 4571   4.031   0.796   6.450 -0.4104 -0.0471  0.1271
   35POPC  H15C 4572   4.147   0.699   6.354 -0.0786 -2.4731  0.6363
   35POPC   C11 4573   4.082   0.912   6.164  0.3392  0.4597  0.4223
   35POPC  H11A 4574   4.124   0.961   6.254  0.6520  0.7564  0.1169
   35POPC  H11B 4575   4.072   0.990   6.085  1.9128  1.0270  0.7734
   35POPC     P 4576   4.318   0.847   6.115 -0.0469  0.2529 -0.1073
   35POPC   O13 4577   4.355   0.852   6.258  0.2692 -0.3778 -0.1658
   35POPC   O14 4578   4.337   0.970   6.035  0.0123  0.4097  0.1445
   35POPC   O12 4579   4.163   0.807   6.113 -0.0776  0.3688 -0.0629
   35POPC   O11 4580   4.384   0.724   6.038 -0.0548  0.4386 -0.4097
   35POPC    C1 4581   4.520   0.720   5.993  0.0802  0.3501  0.0099
   35POPC    HA 4582   4.558   0.617   6.012  2.6980  1.1317 -0.7153
   35POPC    HB 4583   4.589   0.779   6.057  1.9286  0.1047 -1.7018
   35POPC    C2 4584   4.528   0.757   5.844  0.1024 -0.0698 -0.0944
   35POPC    HS 4585   4.519   0.867   5.829 -1.3040 -0.2992 -0.9726
   35POPC   O21 4586   4.424   0.685   5.778  0.1155 -0.0907 -0.0927
   35POPC   C21 4587   4.412   0.741   5.658  0.2238 -0.3152 -0.2100
   35POPC   O22 4588   4.465   0.844   5.619 -0.0251 -0.1688 -0.1692
   35POPC   C22 4589   4.333   0.643   5.573 -0.1579 -0.1501 -0.0503
   35POPC   H2R 4590   4.232   0.642   5.618  1.0582 -1.1484  2.7318
   35POPC   H2S 4591   4.367   0.537   5.575  0.4556  0.0349 -0.7783
   35POPC    C3 4592   4.662   0.722   5.778  0.1242 -0.1376 -0.0141
   35POPC    HX 4593   4.737   0.730   5.860  0.2534  0.0274 -0.1472
   35POPC    HY 4594   4.687   0.796   5.699 -3.1759 -1.7369 -2.6732
   35POPC   O31 4595   4.666   0.589   5.726 -0.2232 -0.0927 -0.1518
   35POPC   C31 4596   4.710   0.488   5.801  0.0370 -0.0847 -0.2941
   35POPC   O32 4597   4.744   0.494   5.918 -0.5198  0.0452 -0.1364
   35POPC   C32 4598   4.705   0.358   5.722  0.2931 -0.2012 -0.1189
   35POPC   H2X 4599   4.667   0.271   5.780 -1.2007  0.3136 -0.2971
   35POPC   H2Y 4600   4.812   0.339   5.696  0.2799 -0.9574  0.3733
   35POPC   C23 4601   4.320   0.700   5.431 -0.2950 -0.9160 -0.3472
   35POPC   H3R 4602   4.286   0.806   5.433  1.9602 -0.1917  0.8408
   35POPC   H3S 4603   4.227   0.649   5.395 -0.9485  0.3357 -0.4557
   35POPC   C24 4604   4.439   0.677   5.338  0.3259  0.0275  0.2141
   35POPC   H4R 4605   4.490   0.582   5.365  0.1548 -0.2028 -0.2748
   35POPC   H4S 4606   4.509   0.763   5.343 -1.9545  1.9084  0.9511
   35POPC   C25 4607   4.391   0.682   5.193 -0.2361 -0.3630  0.3837
   35POPC   H5R 4608   4.340   0.780   5.180  0.9504  0.1359 -0.6105
   35POPC   H5S 4609   4.319   0.602   5.168 -2.4009  1.7157 -0.2145
   35POPC   C26 4610   4.509   0.686   5.096 -0.0862 -0.7361  0.5500
   35POPC   H6R 4611   4.578   0.604   5.127  1.2532  0.8507  1.8756
   35POPC   H6S 4612   4.559   0.785   5.109 -0.0451 -0.7328  0.3684
   35POPC   C27 4613   4.475   0.666   4.948  0.2822  0.8869  0.2340
   35POPC   H7R 4614   4.434   0.765   4.916 -0.4877  0.5711  0.2282
   35POPC   H7S 4615   4.398   0.586   4.943  0.1378  1.0102  0.4495
   35POPC   C28 4616   4.599   0.658   4.858 -0.3168 -0.4037 -0.4874
   35POPC   H8R 4617   4.669   0.586   4.906 -0.1073 -0.7151 -1.2620
   35POPC   H8S 4618   4.648   0.757   4.851 -2.3414  0.5963 -0.8541
   35POPC   C29 4619   4.568   0.609   4.720  0.1046 -0.7189 -0.4709
   35POPC   H91 4620   4.618   0.518   4.684 -0.0971 -0.6148 -1.0286
   35POPC  C210 4621   4.488   0.666   4.628 -0.2731 -0.1313  0.2199
   35POPC  H101 4622   4.469   0.618   4.531 -2.0706  0.7085  0.1298
   35POPC  C211 4623   4.404   0.790   4.637 -0.1342 -0.0046 -0.2561
   35POPC  H11R 4624   4.431   0.852   4.549 -0.6119 -1.4089 -1.4163
   35POPC  H11S 4625   4.420   0.846   4.732 -0.6709 -0.3549  0.0410
   35POPC  C212 4626   4.255   0.759   4.623 -0.2430  0.5115 -0.2474
   35POPC  H12R 4627   4.229   0.655   4.651  0.7785  0.0476 -0.9811
   35POPC  H12S 4628   4.232   0.757   4.514  2.8289  1.0809 -0.9495
   35POPC  C213 4629   4.175   0.856   4.710  0.1415  0.5428  0.0705
   35POPC  H13R 4630   4.070   0.841   4.678  0.3788  0.7935 -0.8516
   35POPC  H13S 4631   4.216   0.959   4.697  1.3618  0.1567  0.7577
   35POPC  C214 4632   4.174   0.826   4.860 -0.1094 -0.1403 -0.0692
   35POPC  H14R 4633   4.250   0.895   4.903 -0.6078  1.9364 -2.4200
   35POPC  H14S 4634   4.194   0.721   4.890 -0.7199 -1.3047 -3.5316
   35POPC  C215 4635   4.049   0.860   4.942  0.1479 -0.1103  0.3148
   35POPC  H15R 4636   3.960   0.813   4.893  0.0341 -0.6455  1.0222
   35POPC  H15S 4637   4.037   0.970   4.938  0.9062  0.0003  0.9348
   35POPC  C216 4638   4.050   0.817   5.088  0.1964 -0.2331  0.2788
   35POPC  H16R 4639   4.147   0.839   5.138 -0.2698  2.1729  0.1495
   35POPC  H16S 4640   4.049   0.705   5.090  3.3987 -0.3107  1.5891
   35POPC  C217 4641   3.938   0.874   5.175 -0.2593 -0.7512  0.0342
   35POPC  H17R 4642   3.931   0.810   5.265 -0.5694  0.7025  1.0526
   35POPC  H17S 4643   3.840   0.866   5.122  0.0501  1.0164 -0.8413
   35POPC  C218 4644   3.955   1.020   5.217 -0.0022 -0.5335 -0.7956
   35POPC  H18R 4645   3.915   1.099   5.150  0.0800  0.0768 -0.1392
   35POPC  H18S 4646   4.063   1.036   5.237 -0.4089  1.1051  0.1541
   35POPC  H18T 4647   3.908   1.033   5.317  1.5254  0.6346 -0.2121
   35POPC   C33 4648   4.618   0.367   5.596  0.3663 -0.0807 -0.1601
   35POPC   H3X 4649   4.653   0.452   5.533  0.7674  0.9270  1.3628
   35POPC   H3Y 4650   4.509   0.377   5.616  0.0903 -0.3902 -1.4773
   35POPC   C34 4651   4.622   0.239   5.513  0.0776 -0.2390  0.0695
   35POPC   H4X 4652   4.577   0.154   5.568 -0.8063  0.2627  0.1451
   35POPC   H4Y 4653   4.727   0.212   5.490 -0.6175 -2.1655 -0.9374
   35POPC   C35 4654   4.567   0.266   5.373  0.1872  0.3296  0.1336
   35POPC   H5X 4655   4.625   0.351   5.330 -3.8444  1.9368 -2.4630
   35POPC   H5Y 4656   4.460   0.296   5.376 -0.2185 -0.8644 -1.4914
   35POPC   C36 4657   4.566   0.145   5.278  0.9011  0.4247  0.0003
   35POPC   H6X 4658   4.516   0.066   5.338  0.3684 -0.3832 -1.5008
   35POPC   H6Y 4659   4.670   0.112   5.258  0.0080 -0.8990 -2.6584
   35POPC   C37 4660   4.499   0.170   5.143  0.1833  0.1902  0.3058
   35POPC   H7X 4661   4.541   0.266   5.108 -1.3678  1.7916  2.7422
   35POPC   H7Y 4662   4.392   0.189   5.164 -0.2938 -0.5257 -1.3905
   35POPC   C38 4663   4.517   0.052   5.047 -0.0244  0.3528  0.0667
   35POPC   H8X 4664   4.449   7.937   5.089  0.9988  0.3802  1.8880
   35POPC   H8Y 4665   4.619   0.008   5.051  0.3691  1.1408 -1.0266
   35POPC   C39 4666   4.482   0.074   4.899  0.4672  0.7140  0.0061
   35POPC   H9X 4667   4.527   7.948   4.848 -2.6336 -1.1646  0.3628
   35POPC   H9Y 4668   4.536   0.167   4.870 -0.4925  2.5183  3.6470
   35POPC  C310 4669   4.335   0.093   4.863  0.2860  0.6589  0.7110
   35POPC  H10X 4670   4.281   0.156   4.937 -0.5172 -1.1208  1.6795
   35POPC  H10Y 4671   4.294   7.954   4.884 -0.2619  0.3696 -1.5226
   35POPC  C311 4672   4.318   0.133   4.717  0.3459 -0.1463  0.4833
   35POPC  H11X 4673   4.364   0.231   4.693 -1.5600  0.6133 -0.2575
   35POPC  H11Y 4674   4.209   0.142   4.695  0.6418  0.8842 -0.6408
   35POPC  C312 4675   4.384   0.030   4.625  0.0762 -0.0302  0.1545
   35POPC  H12X 4676   4.362   7.888   4.657  1.8666 -0.6627 -0.4884
   35POPC  H12Y 4677   4.494   0.034   4.640  0.0239 -1.1885  0.9029
   35POPC  C313 4678   4.347   0.033   4.477 -0.6597 -0.0950  0.3361
   35POPC  H13X 4679   4.239   0.051   4.462 -0.4499 -0.9003 -2.4885
   35POPC  H13Y 4680   4.370   7.889   4.450  0.5511  0.1984  0.0281
   35POPC  C314 4681   4.433   0.127   4.393  0.1602 -0.4618  0.7515
   35POPC  H14X 4682   4.534   0.081   4.388  0.2082 -0.1679 -1.4815
   35POPC  H14Y 4683   4.447   0.229   4.435 -1.8360  0.2503 -0.2556
   35POPC  C315 4684   4.381   0.133   4.249  0.5796  0.0536  0.6200
   35POPC  H15X 4685   4.450   0.189   4.183  2.4443 -1.1230  1.5167
   35POPC  H15Y 4686   4.284   0.188   4.250  0.8132  0.5172 -1.3071
   35POPC  C316 4687   4.358   7.960   4.181 -0.3045  0.4608  0.0112
   35POPC  H16X 4688   4.345   0.004   4.071  1.1823 -0.1087 -0.2211
   35POPC  H16Y 4689   4.271   7.904   4.222  1.1907 -2.5213 -0.7250
   35POPC  H16Z 4690   4.446   7.892   4.192 -0.1941  1.0771  3.4804
   36POPC     N 4691   4.712   0.292   6.343  0.0832  0.1610  0.0734
   36POPC   C12 4692   4.674   0.184   6.243  0.2801  0.2859 -0.1358
   36POPC  H12A 4696   4.658   0.234   6.149 -1.9253  1.7612  0.9619
   36POPC  H12B 4697   4.573   0.160   6.270  0.8196  0.0577  1.8009
   36POPC   C13 4693   4.660   0.426   6.299  0.0570  0.1907  0.1951
   36POPC  H13A 4698   4.688   0.504   6.368  1.1748 -0.4191  0.4335
   36POPC  H13B 4699   4.702   0.446   6.201 -2.2760 -1.2623 -1.1615
   36POPC  H13C 4700   4.552   0.425   6.289 -0.0464  1.1169  1.1200
   36POPC   C14 4694   4.657   0.250   6.477 -0.4951 -0.0979 -0.2419
   36POPC  H14A 4701   4.675   0.332   6.545 -1.3071  1.6909 -2.1292
   36POPC  H14B 4702   4.550   0.233   6.478 -0.5287  0.1264  0.4179
   36POPC  H14C 4703   4.710   0.162   6.511  0.5807  1.0421  1.0789
   36POPC   C15 4695   4.862   0.302   6.356  0.1984  0.0114 -1.1160
   36POPC  H15A 4704   4.873   0.390   6.417 -2.3201 -1.1975  1.1487
   36POPC  H15B 4705   4.901   0.320   6.257  3.8078  0.3595  0.3119
   36POPC  H15C 4706   4.896   0.212   6.406  0.9550  0.1771 -1.3256
   36POPC   C11 4707   4.743   0.048   6.243  0.0442  0.1657 -0.0429
   36POPC  H11A 4708   4.819   0.040   6.162 -1.0353  0.6182 -1.1091
   36POPC  H11B 4709   4.669   7.930   6.221  0.7180 -0.3553 -0.6200
   36POPC     P 4710   4.893   7.851   6.379 -0.1794  0.2795 -0.0580
   36POPC   O13 4711   4.843   7.778   6.498 -0.2958  0.5377  0.0517
   36POPC   O14 4712   5.038   7.881   6.388 -0.1793  0.1571  0.3780
   36POPC   O12 4713   4.805   0.022   6.369 -0.5771  0.0839  0.2487
   36POPC   O11 4714   4.860   7.758   6.252 -0.1878  0.0044  0.1459
   36POPC    C1 4715   4.842   7.618   6.273  0.0608 -0.1051 -0.3633
   36POPC    HA 4716   4.794   7.593   6.370  1.5273 -2.5213 -0.1892
   36POPC    HB 4717   4.942   7.572   6.290 -0.7577 -1.2280  1.7216
   36POPC    C2 4718   4.781   7.540   6.155  0.4086 -0.6663 -0.1774
   36POPC    HS 4719   4.770   7.437   6.195 -2.4199  0.2405  1.5214
   36POPC   O21 4720   4.868   7.555   6.043  0.3055  0.3985 -0.1258
   36POPC   C21 4721   4.896   7.441   5.979  0.4109  0.0667  0.5139
   36POPC   O22 4722   4.858   7.330   6.014  0.3141 -0.0635 -0.0119
   36POPC   C22 4723   4.991   7.478   5.866 -0.3493  0.4636  0.0083
   36POPC   H2R 4724   5.091   7.502   5.907  0.7162 -0.5823 -1.8849
   36POPC   H2S 4725   4.941   7.567   5.822 -0.3691  1.5388  2.1517
   36POPC    C3 4726   4.640   7.591   6.124  0.5808 -0.3036 -0.3697
   36POPC    HX 4727   4.635   7.702   6.120  2.0806 -0.2198  0.0272
   36POPC    HY 4728   4.568   7.578   6.207  0.0450  2.8026 -0.2906
   36POPC   O31 4729   4.582   7.546   6.001 -0.2553 -0.2242 -0.0078
   36POPC   C31 4730   4.536   7.421   6.011  0.0727 -0.3311  0.1625
   36POPC   O32 4731   4.522   7.363   6.117  0.4635 -0.3172  0.2221
   36POPC   C32 4732   4.504   7.361   5.875  0.3112 -0.7426  0.2872
   36POPC   H2X 4733   4.405   7.392   5.834  1.2891 -1.0741 -2.4147
   36POPC   H2Y 4734   4.488   7.252   5.885  0.0848 -0.7184  0.1942
   36POPC   C23 4735   5.019   7.367   5.764  0.4947  0.1993  0.5275
   36POPC   H3R 4736   4.932   7.342   5.700  1.9416 -2.2998 -0.5094
   36POPC   H3S 4737   5.032   7.277   5.827 -0.7269 -1.4233 -1.4982
   36POPC   C24 4738   5.140   7.406   5.679  0.1641 -0.0076 -0.0347
   36POPC   H4R 4739   5.216   7.423   5.757 -0.2938  1.5476  0.0898
   36POPC   H4S 4740   5.121   7.507   5.635  0.0885 -0.4557 -1.0551
   36POPC   C25 4741   5.192   7.301   5.581  0.2327 -0.2318  0.2421
   36POPC   H5R 4742   5.190   7.199   5.626  1.8976 -0.6395 -0.5540
   36POPC   H5S 4743   5.297   7.311   5.546  0.2818 -2.4365 -0.3429
   36POPC   C26 4744   5.105   7.288   5.455 -0.0125  0.2898  0.3582
   36POPC   H6R 4745   4.997   7.285   5.481 -0.3325  0.3055 -0.9693
   36POPC   H6S 4746   5.132   7.192   5.406  0.8577  1.4287 -1.4329
   36POPC   C27 4747   5.106   7.402   5.353 -0.3067 -0.4721 -0.4959
   36POPC   H7R 4748   5.090   7.499   5.405  2.2712 -0.6030  0.6229
   36POPC   H7S 4749   5.022   7.399   5.280 -0.4021 -0.9092 -0.3735
   36POPC   C28 4750   5.232   7.413   5.266 -0.2150 -0.7187 -0.3953
   36POPC   H8R 4751   5.234   7.317   5.210  1.7371 -0.8169 -0.1745
   36POPC   H8S 4752   5.324   7.413   5.329 -0.3100  1.9942 -0.1795
   36POPC   C29 4753   5.219   7.533   5.177  0.5398 -0.2010  0.1849
   36POPC   H91 4754   5.265   7.625   5.214 -1.8102  0.2573  2.0520
   36POPC  C210 4755   5.172   7.536   5.051  0.4197 -0.8255  0.2141
   36POPC  H101 4756   5.168   7.635   5.004  2.2218 -0.5960  0.4903
   36POPC  C211 4757   5.113   7.420   4.977 -0.2325  0.2234 -0.9219
   36POPC  H11R 4758   5.015   7.453   4.935 -0.5817  1.8674  1.0935
   36POPC  H11S 4759   5.088   7.331   5.039  2.6400 -0.2082 -0.3219
   36POPC  C212 4760   5.197   7.369   4.860  0.4920  0.1676 -0.3799
   36POPC  H12R 4761   5.172   7.262   4.845  1.6639 -0.4097  1.6514
   36POPC  H12S 4762   5.305   7.375   4.885  0.3361  0.5095  0.2130
   36POPC  C213 4763   5.173   7.453   4.734  0.4565  0.5198 -0.1381
   36POPC  H13R 4764   5.189   7.559   4.762  0.5868  0.4308  0.1359
   36POPC  H13S 4765   5.071   7.439   4.694  0.7442 -2.1291 -0.0725
   36POPC  C214 4766   5.259   7.403   4.617  0.4993 -0.0445  0.1338
   36POPC  H14R 4767   5.197   7.326   4.566  1.0095 -0.8672  0.7284
   36POPC  H14S 4768   5.354   7.365   4.661 -0.2517 -1.0640  0.8951
   36POPC  C215 4769   5.275   7.527   4.529 -0.3004  0.1233  0.2252
   36POPC  H15R 4770   5.331   7.600   4.591  2.3879 -0.5011 -1.4274
   36POPC  H15S 4771   5.173   7.564   4.505  0.3151  0.7081 -1.5986
   36POPC  C216 4772   5.351   7.513   4.398  0.0522  0.2048  0.4214
   36POPC  H16R 4773   5.286   7.449   4.334  0.5852  2.0308 -2.0271
   36POPC  H16S 4774   5.452   7.475   4.425 -1.1753 -2.5627  1.3385
   36POPC  C217 4775   5.364   7.649   4.330  0.1230  0.2566  0.5360
   36POPC  H17R 4776   5.435   7.719   4.379 -1.0163  1.6108  0.2758
   36POPC  H17S 4777   5.267   7.702   4.336  0.4127  0.8413  0.1018
   36POPC  C218 4778   5.406   7.628   4.184  1.2244  0.4782  0.8182
   36POPC  H18R 4779   5.503   7.575   4.195  1.7067  1.5297  1.8271
   36POPC  H18S 4780   5.331   7.563   4.135  1.8595  1.1418 -1.0453
   36POPC  H18T 4781   5.411   7.725   4.130  0.6920  0.4760  0.7656
   36POPC   C33 4782   4.607   7.403   5.770 -0.1259  0.3306  0.2789
   36POPC   H3X 4783   4.690   7.330   5.781 -0.4808  0.0517  1.1260
   36POPC   H3Y 4784   4.649   7.504   5.790  0.7197 -0.0180  0.2503
   36POPC   C34 4785   4.562   7.384   5.625 -0.5102 -0.3207  0.4813
   36POPC   H4X 4786   4.467   7.442   5.616  0.2692  0.8474 -0.2898
   36POPC   H4Y 4787   4.520   7.282   5.612  1.6128 -1.0372 -0.8651
   36POPC   C35 4788   4.661   7.416   5.513 -0.4910 -0.7988  0.3613
   36POPC   H5X 4789   4.761   7.371   5.529  1.2392  2.2237 -1.5031
   36POPC   H5Y 4790   4.666   7.527   5.508  1.2799 -0.8554  0.4849
   36POPC   C36 4791   4.605   7.385   5.374 -0.1516 -0.0791  0.0621
   36POPC   H6X 4792   4.507   7.435   5.362 -0.0654  0.7691  2.5310
   36POPC   H6Y 4793   4.589   7.275   5.366 -0.8847  0.0423 -0.1836
   36POPC   C37 4794   4.699   7.425   5.260 -0.4436  0.2643 -0.0600
   36POPC   H7X 4795   4.800   7.385   5.283 -0.0382 -0.1441 -2.4499
   36POPC   H7Y 4796   4.690   7.534   5.243  3.8203  0.9463  1.2884
   36POPC   C38 4797   4.667   7.360   5.126  0.3399 -0.4948  0.1134
   36POPC   H8X 4798   4.574   7.410   5.091 -0.5324 -2.7044 -0.8176
   36POPC   H8Y 4799   4.638   7.252   5.130 -2.1778  0.1909  1.2246
   36POPC   C39 4800   4.782   7.352   5.025  0.3391 -0.3996  0.1049
   36POPC   H9X 4801   4.870   7.309   5.078 -0.0116 -1.3896 -0.1087
   36POPC   H9Y 4802   4.802   7.457   4.997  1.3910 -0.3835  0.9022
   36POPC  C310 4803   4.758   7.246   4.918  0.1519  0.0228 -0.2727
   36POPC  H10X 4804   4.732   7.144   4.955  2.7368 -0.6626 -0.2729
   36POPC  H10Y 4805   4.857   7.228   4.870  1.6196  3.5282  1.2750
   36POPC  C311 4806   4.658   7.297   4.813  0.3440  0.5620 -0.1899
   36POPC  H11X 4807   4.658   7.405   4.785  0.6296  1.0902  1.7124
   36POPC  H11Y 4808   4.551   7.277   4.836  0.1963  2.5314  1.0317
   36POPC  C312 4809   4.681   7.232   4.677  0.3618  0.0525  0.0547
   36POPC  H12X 4810   4.590   7.225   4.614  0.5184 -2.9169  0.1025
   36POPC  H12Y 4811   4.715   7.131   4.705  2.2973  1.3494  2.5662
   36POPC  C313 4812   4.806   7.289   4.609  0.4571 -0.3964 -0.1435
   36POPC  H13X 4813   4.896   7.237   4.649 -0.9934 -1.8995  1.2345
   36POPC  H13Y 4814   4.821   7.393   4.644 -1.4360 -0.8668  2.1289
   36POPC  C314 4815   4.803   7.259   4.458 -0.0526 -0.0472 -0.2033
   36POPC  H14X 4816   4.705   7.296   4.420  0.0930 -0.5837 -1.1032
   36POPC  H14Y 4817   4.819   7.151   4.442  2.3754 -0.0086  1.6988
   36POPC  C315 4818   4.907   7.339   4.379  0.3084  0.1988  0.5135
   36POPC  H15X 4819   5.000   7.313   4.435  0.8790 -0.9007 -0.8996
   36POPC  H15Y 4820   4.891   7.448   4.391 -0.2849 -0.1710  3.5835
   36POPC  C316 4821   4.903   7.294   4.233 -0.3603  0.1369  0.5507
   36POPC  H16X 4822   4.806   7.258   4.192  0.6759 -0.1408 -1.7446
   36POPC  H16Y 4823   4.972   7.208   4.238 -0.3485  0.0537 -0.8740
   36POPC  H16Z 4824   4.939   7.376   4.167  1.0200 -0.2124  0.8677
   37POPC     N 4825   0.676   3.647   6.041  0.0522  0.0207  0.2057
   37POPC   C12 4826   0.588   3.703   5.932 -0.6950  0.3242  0.9670
   37POPC  H12A 4830   0.643   3.688   5.841 -0.1942 -1.2300  1.5201
   37POPC  H12B 4831   0.590   3.811   5.936  0.7401  0.3284  0.3024
   37POPC   C13 4827   0.724   3.512   5.992  0.2582  0.0897  0.2166
   37POPC  H13A 4832   0.794   3.508   5.910  2.6304  0.0528  2.1768
   37POPC  H13B 4833   0.779   3.467   6.073 -0.5802 -2.9364 -0.8238
   37POPC  H13C 4834   0.633   3.455   5.982  1.0465 -1.2866  0.7491
   37POPC   C14 4828   0.794   3.740   6.058  0.1567 -0.2045  0.7398
   37POPC  H14A 4835   0.868   3.688   6.117  0.9480 -1.0112 -0.9131
   37POPC  H14B 4836   0.850   3.759   5.967 -0.9403 -1.3399 -0.1956
   37POPC  H14C 4837   0.777   3.837   6.101 -1.2231 -0.7745  1.5327
   37POPC   C15 4829   0.599   3.617   6.167 -0.2013 -0.3113 -0.0259
   37POPC  H15A 4838   0.590   3.701   6.234  1.6697 -0.8239  0.8998
   37POPC  H15B 4839   0.656   3.548   6.229 -0.0452 -1.6982 -1.6783
   37POPC  H15C 4840   0.507   3.565   6.147 -0.3409  0.0279 -0.2620
   37POPC   C11 4841   0.450   3.640   5.917 -0.4243 -0.1407  0.4160
   37POPC  H11A 4842   0.408   3.685   5.825 -2.0682  0.8759  1.6235
   37POPC  H11B 4843   0.392   3.677   6.004 -1.2248  0.5606 -0.4037
   37POPC     P 4844   0.311   3.432   5.871 -0.0767 -0.1752  0.1167
   37POPC   O13 4845   0.200   3.503   5.939  0.5011  0.4676  0.3939
   37POPC   O14 4846   0.325   3.289   5.906 -0.1952 -0.2216 -0.0285
   37POPC   O12 4847   0.452   3.498   5.909 -0.2111 -0.1458  0.5624
   37POPC   O11 4848   0.315   3.467   5.714  0.0281 -0.0177  0.1534
   37POPC    C1 4849   0.418   3.390   5.650 -0.0262  0.1160 -0.0935
   37POPC    HA 4850   0.382   3.351   5.553 -1.1120  1.7754 -0.3832
   37POPC    HB 4851   0.453   3.301   5.707  1.8204  0.4289 -0.7053
   37POPC    C2 4852   0.542   3.472   5.612  0.2224 -0.1889  0.0617
   37POPC    HS 4853   0.607   3.487   5.700 -0.5472 -1.9328  0.9462
   37POPC   O21 4854   0.487   3.595   5.565  0.1960 -0.0303  0.5075
   37POPC   C21 4855   0.564   3.703   5.585 -0.0689  0.2375  0.0889
   37POPC   O22 4856   0.668   3.712   5.647 -0.2015  0.7189  0.2412
   37POPC   C22 4857   0.493   3.822   5.522  0.3768  0.3975 -0.1127
   37POPC   H2R 4858   0.470   3.883   5.612 -3.6227 -1.8610  0.5033
   37POPC   H2S 4859   0.405   3.785   5.465  1.3259 -0.1240 -1.2753
   37POPC    C3 4860   0.614   3.398   5.497 -0.6672 -0.0339 -0.6018
   37POPC    HX 4861   0.546   3.383   5.411 -1.6613  0.8383  0.0161
   37POPC    HY 4862   0.616   3.292   5.530  1.0374  0.3985  0.7774
   37POPC   O31 4863   0.736   3.456   5.451 -0.2283 -0.0567  0.5108
   37POPC   C31 4864   0.839   3.370   5.455 -0.1460  0.0019 -0.3216
   37POPC   O32 4865   0.836   3.260   5.507 -0.2722 -0.0092 -0.3500
   37POPC   C32 4866   0.939   3.430   5.357 -0.0495  0.1555 -0.1266
   37POPC   H2X 4867   1.024   3.360   5.338  0.0031  0.2793 -0.3461
   37POPC   H2Y 4868   0.983   3.519   5.407  0.9065  0.5043 -1.5636
   37POPC   C23 4869   0.589   3.880   5.418  0.1599 -0.5444 -0.8497
   37POPC   H3R 4870   0.681   3.905   5.475 -0.4511 -2.1298  0.9005
   37POPC   H3S 4871   0.540   3.973   5.382  1.0449  0.2704  0.0066
   37POPC   C24 4872   0.602   3.789   5.296  0.3815 -1.1992 -0.3388
   37POPC   H4R 4873   0.498   3.760   5.266 -0.0683  0.4077 -0.3590
   37POPC   H4S 4874   0.657   3.699   5.330  1.6507  1.2536  4.5890
   37POPC   C25 4875   0.676   3.860   5.183 -0.5300  0.6609  0.2212
   37POPC   H5R 4876   0.777   3.896   5.212 -0.7545 -0.6276  2.7031
   37POPC   H5S 4877   0.606   3.942   5.157  0.2956  1.5903  0.8774
   37POPC   C26 4878   0.709   3.781   5.057  0.4979  0.7817  0.4134
   37POPC   H6R 4879   0.613   3.733   5.028  0.9762 -0.7576  1.2754
   37POPC   H6S 4880   0.772   3.690   5.072  1.4872  1.7195  2.1032
   37POPC   C27 4881   0.757   3.869   4.942  0.5247  0.4950  0.2035
   37POPC   H7R 4882   0.817   3.950   4.990 -1.2431  2.5624 -0.9609
   37POPC   H7S 4883   0.674   3.918   4.888  0.9555  0.5109 -0.4483
   37POPC   C28 4884   0.861   3.808   4.848 -0.0876  0.1742 -0.2693
   37POPC   H8R 4885   0.942   3.762   4.909  1.2054  1.4766 -0.9765
   37POPC   H8S 4886   0.911   3.885   4.786  1.2531 -1.0945 -0.8188
   37POPC   C29 4887   0.796   3.704   4.762 -0.3181  0.1050 -0.0165
   37POPC   H91 4888   0.789   3.600   4.797  1.1029  0.6429  1.9536
   37POPC  C210 4889   0.739   3.735   4.645  0.0688 -0.1455 -0.2769
   37POPC  H101 4890   0.691   3.656   4.586  0.8753 -0.4643 -0.5003
   37POPC  C211 4891   0.730   3.869   4.577  0.1988 -0.1609 -0.3243
   37POPC  H11R 4892   0.775   3.938   4.652  3.1114  1.0106 -3.0418
   37POPC  H11S 4893   0.792   3.863   4.485 -0.7947  2.4279 -1.2163
   37POPC  C212 4894   0.588   3.923   4.556  0.0432 -0.3401  0.2604
   37POPC  H12R 4895   0.537   3.908   4.654  0.8280  2.5617  1.1584
   37POPC  H12S 4896   0.598   4.026   4.516 -0.6277 -0.5886 -0.5659
   37POPC  C213 4897   0.530   3.833   4.447  0.3151  0.0893 -0.2375
   37POPC  H13R 4898   0.535   3.726   4.473  0.9290  0.1765 -0.0033
   37POPC  H13S 4899   0.586   3.837   4.351 -2.0017  0.2839 -1.6320
   37POPC  C214 4900   0.385   3.866   4.408  0.1243  0.1771  0.5312
   37POPC  H14R 4901   0.314   3.836   4.488 -0.3765  2.8046  1.1176
   37POPC  H14S 4902   0.357   3.803   4.321 -3.0668  1.5458  0.4933
   37POPC  C215 4903   0.356   4.006   4.354 -0.1385 -0.0706  0.0245
   37POPC  H15R 4904   0.418   4.025   4.263 -0.2673 -2.5769 -0.6465
   37POPC  H15S 4905   0.391   4.083   4.425  0.6168 -0.4163  0.0357
   37POPC  C216 4906   0.214   4.041   4.310 -0.0811  0.0841 -0.0394
   37POPC  H16R 4907   0.146   3.997   4.386  0.9993 -0.7185  0.4800
   37POPC  H16S 4908   0.187   3.978   4.223  0.4004 -0.0503 -0.0930
   37POPC  C217 4909   0.181   4.187   4.283  0.1025  0.0811 -0.2873
   37POPC  H17R 4910   0.258   4.216   4.209  0.1089 -1.7320 -0.9947
   37POPC  H17S 4911   0.209   4.253   4.368  2.4603 -1.2029 -0.0468
   37POPC  C218 4912   0.041   4.224   4.232  0.1852  0.2910 -0.3635
   37POPC  H18R 4913   0.038   4.313   4.166 -0.0660  0.0708 -0.6481
   37POPC  H18S 4914   7.937   4.228   4.321 -1.0356  0.8743 -1.2491
   37POPC  H18T 4915   7.946   4.149   4.173 -2.4255  0.9799  1.2185
   37POPC   C33 4916   0.877   3.434   5.218 -0.7748  0.6260  0.2110
   37POPC   H3X 4917   0.780   3.485   5.197 -0.7083 -0.1633 -2.1131
   37POPC   H3Y 4918   0.843   3.332   5.189 -0.1021  0.0474  1.4199
   37POPC   C34 4919   0.978   3.475   5.111 -0.0880 -1.1498  0.1623
   37POPC   H4X 4920   1.069   3.422   5.148  1.5623  0.0174 -2.1033
   37POPC   H4Y 4921   0.996   3.585   5.110 -0.4838 -1.0889 -0.5499
   37POPC   C35 4922   0.953   3.420   4.971  0.2237 -0.2136 -0.2637
   37POPC   H5X 4923   0.858   3.459   4.929  0.8226  2.0334  0.3648
   37POPC   H5Y 4924   0.958   3.309   4.971 -0.6210 -0.2543  0.2190
   37POPC   C36 4925   1.053   3.478   4.871  0.1111  0.3261 -0.0648
   37POPC   H6X 4926   1.154   3.457   4.913 -0.2030 -0.1981  0.4344
   37POPC   H6Y 4927   1.047   3.589   4.879  0.1848  0.1420  3.0079
   37POPC   C37 4928   1.034   3.434   4.725 -0.2616  0.6948 -0.1279
   37POPC   H7X 4929   0.945   3.485   4.682 -2.7352 -2.6920  0.7419
   37POPC   H7Y 4930   1.010   3.327   4.708  1.4137  0.1055  1.0850
   37POPC   C38 4931   1.158   3.467   4.643 -0.4305  0.4517 -0.4798
   37POPC   H8X 4932   1.248   3.409   4.675  0.3072  2.2341  0.7648
   37POPC   H8Y 4933   1.186   3.573   4.661 -1.5262  0.7722 -0.6645
   37POPC   C39 4934   1.135   3.464   4.492 -0.3893 -0.4583 -0.4732
   37POPC   H9X 4935   1.052   3.534   4.467  0.1476 -0.1279 -1.3570
   37POPC   H9Y 4936   1.095   3.362   4.474  0.4318 -0.8376 -0.1712
   37POPC  C310 4937   1.258   3.481   4.403  0.3186  0.2533  0.6391
   37POPC  H10X 4938   1.232   3.454   4.299  1.6083  1.3170  0.0283
   37POPC  H10Y 4939   1.336   3.425   4.460 -0.5589 -0.0424  1.5751
   37POPC  C311 4940   1.304   3.625   4.380 -0.2194  0.3675  0.2781
   37POPC  H11X 4941   1.332   3.663   4.481 -1.4091  0.0624  0.7252
   37POPC  H11Y 4942   1.219   3.678   4.333 -0.1341 -1.9537 -2.6574
   37POPC  C312 4943   1.429   3.646   4.294 -0.3123  0.7480  0.2391
   37POPC  H12X 4944   1.505   3.580   4.340  0.1051  1.6051  0.8040
   37POPC  H12Y 4945   1.445   3.756   4.293  1.5974  0.4966 -1.5702
   37POPC  C313 4946   1.422   3.601   4.148  0.7871 -0.1898  0.4722
   37POPC  H13X 4947   1.348   3.674   4.110  1.5821 -0.0602 -0.8815
   37POPC  H13Y 4948   1.394   3.494   4.153  3.2742 -0.9359 -0.4647
   37POPC  C314 4949   1.548   3.602   4.060  0.6952 -0.4119  0.3376
   37POPC  H14X 4950   1.623   3.552   4.125 -0.4941 -1.5907  0.8436
   37POPC  H14Y 4951   1.570   3.711   4.054 -1.5182 -0.0817 -2.8413
   37POPC  C315 4952   1.535   3.547   3.918 -0.0747  0.1655  0.1813
   37POPC  H15X 4953   1.448   3.608   3.884  1.1809  2.4545  0.9155
   37POPC  H15Y 4954   1.499   3.443   3.932  0.1596  0.1405  0.6044
   37POPC  C316 4955   1.658   3.562   3.828  0.1703 -0.3185  0.4382
   37POPC  H16X 4956   1.708   3.656   3.858  1.3452 -0.7515 -0.1235
   37POPC  H16Y 4957   1.622   3.569   3.724  2.1105  2.6286 -0.0906
   37POPC  H16Z 4958   1.734   3.481   3.838 -0.0333 -0.5681 -0.0364
   38POPC     N 4959   0.838   1.682   6.470  0.2209  0.3287 -0.4118
   38POPC   C12 4960   0.812   1.743   6.335 -0.3131 -0.3131 -0.6039
   38POPC  H12A 4964   0.756   1.670   6.280  0.2984 -3.5752  2.9290
   38POPC  H12B 4965   0.911   1.757   6.293  0.9612  0.7536  2.6347
   38POPC   C13 4961   0.719   1.601   6.515  0.6744 -0.0607  0.0939
   38POPC  H13A 4966   0.729   1.586   6.622  3.1951 -3.1563 -0.5267
   38POPC  H13B 4967   0.627   1.653   6.490  1.1311  0.3467 -0.7451
   38POPC  H13C 4968   0.711   1.506   6.465 -0.3053 -0.6752  1.3762
   38POPC   C14 4962   0.965   1.601   6.471 -0.1780 -0.2991  0.3338
   38POPC  H14A 4969   0.952   1.504   6.425 -1.1543 -0.5628  1.1599
   38POPC  H14B 4970   1.043   1.657   6.421 -0.6295  0.2753  0.2715
   38POPC  H14C 4971   0.972   1.591   6.578 -3.2484  0.8866  0.6698
   38POPC   C15 4963   0.859   1.785   6.579 -0.2749  0.3341 -0.3214
   38POPC  H15A 4972   0.874   1.740   6.676  2.6240 -1.3140 -1.4569
   38POPC  H15B 4973   0.777   1.855   6.571 -0.4882  0.1087 -0.1126
   38POPC  H15C 4974   0.947   1.845   6.564  1.2129 -1.3949  1.1499
   38POPC   C11 4975   0.733   1.874   6.329 -0.1333 -0.2007 -0.5356
   38POPC  H11A 4976   0.718   1.898   6.221 -0.8253  0.1982 -0.3596
   38POPC  H11B 4977   0.790   1.958   6.374 -1.6570 -0.2923  1.6415
   38POPC     P 4978   0.522   1.995   6.421 -0.3497 -0.1589 -0.1527
   38POPC   O13 4979   0.606   2.115   6.444  0.1513 -0.5813  0.2546
   38POPC   O14 4980   0.420   1.964   6.524  0.2526  0.1664  0.5490
   38POPC   O12 4981   0.612   1.864   6.406  0.0407  0.1154 -0.2187
   38POPC   O11 4982   0.458   2.008   6.276 -0.0827 -0.0184 -0.2595
   38POPC    C1 4983   0.328   1.952   6.257 -0.0947  0.1256 -0.6059
   38POPC    HA 4984   0.276   2.024   6.190  0.6156  1.7365  0.5686
   38POPC    HB 4985   0.267   1.932   6.348 -1.3411  1.9273 -1.0231
   38POPC    C2 4986   0.323   1.812   6.193  0.3869 -0.2707  0.2278
   38POPC    HS 4987   0.359   1.746   6.275 -0.8077  0.4944  1.3652
   38POPC   O21 4988   0.424   1.811   6.091 -0.2571 -0.2775 -0.4137
   38POPC   C21 4989   0.463   1.686   6.066  0.0881 -0.1472 -0.5271
   38POPC   O22 4990   0.446   1.587   6.135 -0.2786  0.4263  0.2068
   38POPC   C22 4991   0.518   1.672   5.924 -0.0610 -1.0320 -0.5017
   38POPC   H2R 4992   0.544   1.566   5.902  0.7714 -0.6661 -1.3154
   38POPC   H2S 4993   0.608   1.738   5.919 -0.0632 -0.9925 -0.0972
   38POPC    C3 4994   0.188   1.767   6.136  0.3062 -0.1877  0.3533
   38POPC    HX 4995   0.108   1.787   6.210 -0.2239 -0.5739 -0.1102
   38POPC    HY 4996   0.189   1.658   6.116 -0.5633  0.2265 -2.2082
   38POPC   O31 4997   0.174   1.828   6.007  0.1065 -0.4868  0.2329
   38POPC   C31 4998   0.048   1.838   5.965  0.3134 -0.2162 -0.3378
   38POPC   O32 4999   7.920   1.765   6.003  0.4384  0.0293  0.5433
   38POPC   C32 5000   0.037   1.951   5.864  0.3825  0.2935  0.2169
   38POPC   H2X 5001   7.896   1.976   5.830 -0.8555 -0.7687  2.9635
   38POPC   H2Y 5002   0.098   1.909   5.781 -1.3869 -0.8505 -0.5262
   38POPC   C23 5003   0.409   1.713   5.826 -0.2287  0.1231  0.1620
   38POPC   H3R 5004   0.369   1.814   5.850 -0.9313 -0.0462 -0.2848
   38POPC   H3S 5005   0.319   1.649   5.840 -0.9491  0.7605 -1.3860
   38POPC   C24 5006   0.458   1.705   5.681 -0.3780 -0.0612  0.1216
   38POPC   H4R 5007   0.546   1.637   5.677  0.3947  0.6352  3.7012
   38POPC   H4S 5008   0.492   1.808   5.660 -1.0342  0.1635  0.1375
   38POPC   C25 5009   0.343   1.658   5.592 -0.0002 -0.1740 -0.3064
   38POPC   H5R 5010   0.261   1.733   5.596  2.2271  2.2833  0.2321
   38POPC   H5S 5011   0.296   1.562   5.622 -0.1999 -1.0258 -3.2215
   38POPC   C26 5012   0.377   1.651   5.443 -0.6002 -0.9526 -0.4118
   38POPC   H6R 5013   0.426   1.556   5.415  1.3064 -0.4227  1.0703
   38POPC   H6S 5014   0.435   1.733   5.394 -0.2339 -0.7345  0.3891
   38POPC   C27 5015   0.246   1.656   5.363 -0.5811 -0.2646 -0.4077
   38POPC   H7R 5016   0.217   1.761   5.385  0.3803  0.0199 -0.4781
   38POPC   H7S 5017   0.175   1.582   5.406 -0.3403 -1.2680 -1.7081
   38POPC   C28 5018   0.270   1.635   5.214  0.1306  0.2031 -0.3613
   38POPC   H8R 5019   0.274   1.526   5.192 -0.3695  0.3615 -1.2941
   38POPC   H8S 5020   0.363   1.689   5.186 -0.9332  2.6039  0.6052
   38POPC   C29 5021   0.159   1.707   5.141 -0.2181  0.0303 -0.0033
   38POPC   H91 5022   0.164   1.815   5.164  2.1097 -0.2926  1.1902
   38POPC  C210 5023   0.063   1.657   5.064 -0.0278  0.3011 -0.4199
   38POPC  H101 5024   0.000   1.730   5.010  0.0034 -0.5594 -1.6992
   38POPC  C211 5025   0.037   1.509   5.057  0.3020  0.2261 -0.0862
   38POPC  H11R 5026   7.902   1.501   5.111  0.5233 -3.7490 -0.0516
   38POPC  H11S 5027   0.099   1.448   5.125  1.6073  0.4627 -1.0422
   38POPC  C212 5028   0.032   1.445   4.918  0.4978 -0.4069  0.1972
   38POPC  H12R 5029   0.138   1.453   4.885  0.1074  1.6767 -0.6140
   38POPC  H12S 5030   7.931   1.508   4.852  1.2502  0.3252  0.1325
   38POPC  C213 5031   7.949   1.299   4.910  0.0110 -0.2544 -0.0810
   38POPC  H13R 5032   7.840   1.290   4.930 -0.2129 -0.2585 -1.2693
   38POPC  H13S 5033   0.039   1.237   4.986 -0.7710 -0.6609  0.1630
   38POPC  C214 5034   0.011   1.232   4.774 -0.9984 -0.6770 -0.0662
   38POPC  H14R 5035   7.934   1.129   4.787  0.5812 -1.5037 -1.5953
   38POPC  H14S 5036   0.119   1.223   4.749 -1.2296 -0.6141 -1.0967
   38POPC  C215 5037   7.911   1.295   4.649 -0.1690  0.2239 -0.0452
   38POPC  H15R 5038   7.933   1.222   4.568  0.3259  0.8048 -0.4412
   38POPC  H15S 5039   7.947   1.394   4.615 -2.4794  1.0268 -0.2776
   38POPC  C216 5040   7.760   1.316   4.654 -0.1783  0.1381  0.0248
   38POPC  H16R 5041   7.732   1.384   4.571 -0.8646  0.4371  0.4958
   38POPC  H16S 5042   7.735   1.382   4.739  1.0545  1.0825 -0.3240
   38POPC  C217 5043   7.672   1.191   4.652  0.2473 -0.1572 -0.4223
   38POPC  H17R 5044   7.702   1.133   4.742 -0.4281 -1.1918 -0.8581
   38POPC  H17S 5045   7.708   1.135   4.563  0.4423 -2.2334  0.9238
   38POPC  C218 5046   7.521   1.213   4.657  0.2457 -0.2053 -0.2146
   38POPC  H18R 5047   7.474   1.119   4.695 -0.0438  0.1052  0.1979
   38POPC  H18S 5048   7.474   1.229   4.558  0.7777 -0.7521 -0.5642
   38POPC  H18T 5049   7.490   1.299   4.720  0.8300  0.8407 -1.3287
   38POPC   C33 5050   0.110   2.080   5.901  0.4472  0.4171 -0.3342
   38POPC   H3X 5051   0.216   2.050   5.920 -0.0622 -1.5607 -0.5115
   38POPC   H3Y 5052   0.070   2.133   5.990 -0.3401 -1.5056  0.4764
   38POPC   C34 5053   0.110   2.182   5.786 -0.0620  0.7912 -0.0051
   38POPC   H4X 5054   0.104   2.132   5.687 -3.6185  2.7849 -0.8924
   38POPC   H4Y 5055   0.211   2.228   5.792 -1.0514  3.0288 -0.0228
   38POPC   C35 5056   7.961   2.287   5.793 -0.2345  0.6069  0.0745
   38POPC   H5X 5057   0.025   2.360   5.713 -0.5082  0.3799 -0.2205
   38POPC   H5Y 5058   0.001   2.327   5.897 -1.7367 -0.5910  0.5711
   38POPC   C36 5059   7.815   2.246   5.784 -0.2906  0.6359  0.1622
   38POPC   H6X 5060   7.753   2.331   5.819 -0.4426  0.1240  1.1606
   38POPC   H6Y 5061   7.794   2.156   5.846 -1.3343  1.3432  0.8596
   38POPC   C37 5062   7.768   2.199   5.645 -0.2220  0.6688  0.1276
   38POPC   H7X 5063   7.820   2.105   5.618 -0.1303  0.8046 -0.1619
   38POPC   H7Y 5064   7.789   2.275   5.567  2.2793 -0.6752 -0.5530
   38POPC   C38 5065   7.619   2.162   5.640  0.0329 -0.3370 -0.0467
   38POPC   H8X 5066   7.589   2.107   5.732  1.5223  0.3499  0.8894
   38POPC   H8Y 5067   7.587   2.099   5.554  0.6029 -1.8667  0.8263
   38POPC   C39 5068   7.525   2.282   5.651  0.3703 -0.0888  0.1507
   38POPC   H9X 5069   7.544   2.328   5.751 -1.8176  1.1698  0.0224
   38POPC   H9Y 5070   7.424   2.236   5.654 -0.6328  2.0204 -0.2214
   38POPC  C310 5071   7.550   2.392   5.548 -0.3298  0.2864  0.3773
   38POPC  H10X 5072   7.544   2.338   5.452 -1.0018 -2.0009  1.6634
   38POPC  H10Y 5073   7.656   2.424   5.560  0.5290 -2.2505 -0.2256
   38POPC  C311 5074   7.453   2.510   5.551 -0.3610  0.2712 -0.0859
   38POPC  H11X 5075   7.456   2.557   5.652  0.2745 -1.2707  0.6398
   38POPC  H11Y 5076   7.350   2.471   5.535  0.3354 -1.0649 -1.4949
   38POPC  C312 5077   7.490   2.612   5.443  0.1333  0.4676  0.2677
   38POPC  H12X 5078   7.413   2.691   5.458 -1.1539 -0.6664 -0.2779
   38POPC  H12Y 5079   7.465   2.564   5.346 -1.1998  1.7187 -0.0329
   38POPC  C313 5080   7.636   2.654   5.453  0.2882 -0.0592  0.2104
   38POPC  H13X 5081   7.696   2.568   5.416  0.2152  0.3540 -0.8742
   38POPC  H13Y 5082   7.676   2.660   5.557  0.7132 -0.2128  0.0597
   38POPC  C314 5083   7.649   2.785   5.375  0.0551 -0.2197 -0.0959
   38POPC  H14X 5084   7.559   2.848   5.386  0.1310  0.3665 -2.5128
   38POPC  H14Y 5085   7.660   2.760   5.267  2.2691 -1.8037  0.4486
   38POPC  C315 5086   7.773   2.858   5.427  0.0532  0.0279 -0.4380
   38POPC  H15X 5087   7.769   2.858   5.538 -2.1548  0.7514 -0.4854
   38POPC  H15Y 5088   7.774   2.964   5.395  0.3672  0.1900  0.1134
   38POPC  C316 5089   7.912   2.814   5.380 -0.1514 -0.5948 -0.4613
   38POPC  H16X 5090   7.949   2.716   5.419  0.2302  0.4388  1.8596
   38POPC  H16Y 5091   0.019   2.886   5.428 -2.0807  1.1876 -0.2447
   38POPC  H16Z 5092   7.918   2.810   5.269 -0.1375  0.7889 -0.5148
   39POPC     N 5093   1.005   6.998   5.962 -0.2370  0.0922  0.3341
   39POPC   C12 5094   0.972   7.099   5.854  0.2241 -0.2176 -0.0974
   39POPC  H12A 5098   0.927   7.183   5.906 -0.6962 -1.8829  1.8734
   39POPC  H12B 5099   0.886   7.068   5.797 -0.7896  2.8763 -0.3346
   39POPC   C13 5095   1.035   7.068   6.093 -0.3254 -0.6264  0.7396
   39POPC  H13A 5100   1.130   7.119   6.087  0.7376 -2.3793  2.0651
   39POPC  H13B 5101   0.961   7.147   6.100  2.6924  2.2829  1.0959
   39POPC  H13C 5102   1.039   6.997   6.174 -2.2642 -0.9934  0.5466
   39POPC   C14 5096   0.883   6.912   5.983 -0.4173  0.3232  0.2386
   39POPC  H14A 5103   0.864   6.850   5.896 -1.2364  1.4023 -0.3543
   39POPC  H14B 5104   0.908   6.845   6.064  3.0248 -0.5392 -1.4193
   39POPC  H14C 5105   0.795   6.968   6.008 -1.4281 -1.5492  0.9348
   39POPC   C15 5097   1.126   6.918   5.919  0.0226  0.7374 -0.1623
   39POPC  H15A 5106   1.149   6.838   5.989  1.9552  1.9814  0.6654
   39POPC  H15B 5107   1.213   6.981   5.914 -0.6742  1.7483  0.2597
   39POPC  H15C 5108   1.112   6.883   5.818  2.6057  0.2546 -0.3721
   39POPC   C11 5109   1.086   7.150   5.765  0.0913  0.0384 -0.1219
   39POPC  H11A 5110   1.043   7.227   5.699  1.3305  0.2265 -0.7230
   39POPC  H11B 5111   1.109   7.068   5.694 -0.5980  0.6757 -1.0818
   39POPC     P 5112   1.323   7.265   5.796  0.0146 -0.2381 -0.0612
   39POPC   O13 5113   1.430   7.219   5.888 -0.1134 -0.7090 -0.1452
   39POPC   O14 5114   1.293   7.409   5.807  0.4440 -0.1946  0.5331
   39POPC   O12 5115   1.190   7.196   5.852 -0.3101  0.5199  0.1109
   39POPC   O11 5116   1.323   7.210   5.645 -0.2742  0.1484 -0.2026
   39POPC    C1 5117   1.386   7.087   5.609 -0.0456  0.2912 -0.2947
   39POPC    HA 5118   1.339   7.041   5.519  2.1065  0.4389 -1.5166
   39POPC    HB 5119   1.375   7.008   5.687 -1.3470 -0.0890 -0.8392
   39POPC    C2 5120   1.530   7.121   5.568  0.0854  0.6526  0.4502
   39POPC    HS 5121   1.574   7.159   5.662 -0.7039  0.0970  1.0558
   39POPC   O21 5122   1.523   7.211   5.457 -0.0722  0.2011  0.0864
   39POPC   C21 5123   1.607   7.313   5.480 -0.1325  0.3263 -0.2536
   39POPC   O22 5124   1.696   7.314   5.563 -0.6326  0.0532  0.2879
   39POPC   C22 5125   1.565   7.440   5.407  0.2001  0.4240 -0.2793
   39POPC   H2R 5126   1.518   7.504   5.485 -2.2733 -0.5402 -0.9143
   39POPC   H2S 5127   1.493   7.415   5.326  0.2404 -1.8132  0.3232
   39POPC    C3 5128   1.609   6.994   5.532 -0.2118  0.6584 -0.2251
   39POPC    HX 5129   1.552   6.914   5.479  0.3960 -0.7896  1.2751
   39POPC    HY 5130   1.644   6.947   5.626  1.0390 -0.8974 -1.4292
   39POPC   O31 5131   1.721   7.028   5.451  0.2200 -0.3682 -0.0685
   39POPC   C31 5132   1.838   7.036   5.516  0.2915  0.1184 -0.2504
   39POPC   O32 5133   1.852   7.014   5.635  0.1764 -0.5798 -0.3608
   39POPC   C32 5134   1.948   7.096   5.430 -0.0534  1.0199 -0.0678
   39POPC   H2X 5135   2.049   7.097   5.477  0.0375  0.5080 -0.2485
   39POPC   H2Y 5136   1.912   7.199   5.408  0.9886  1.3255 -0.4006
   39POPC   C23 5137   1.688   7.511   5.353  0.2042  0.7649  0.1746
   39POPC   H3R 5138   1.780   7.512   5.415  0.0497 -0.0247  0.4101
   39POPC   H3S 5139   1.651   7.614   5.333  0.4919  0.6304 -1.1405
   39POPC   C24 5140   1.733   7.475   5.211 -0.4243  0.6168  0.0100
   39POPC   H4R 5141   1.661   7.491   5.129  1.0206 -1.6512 -1.7688
   39POPC   H4S 5142   1.759   7.367   5.215 -0.8703  0.4814 -0.7712
   39POPC   C25 5143   1.847   7.571   5.175  0.0495  0.2126  0.4140
   39POPC   H5R 5144   1.928   7.562   5.250 -0.6522 -0.4108  1.1061
   39POPC   H5S 5145   1.810   7.675   5.188 -0.6635 -0.0819  0.7521
   39POPC   C26 5146   1.880   7.561   5.026 -0.2121 -0.0001  0.3686
   39POPC   H6R 5147   1.781   7.579   4.980  1.1059  1.4628 -1.9902
   39POPC   H6S 5148   1.913   7.464   4.982 -2.2905 -0.4999 -0.1064
   39POPC   C27 5149   1.970   7.670   4.967  0.1436 -0.5233 -0.0729
   39POPC   H7R 5150   2.077   7.649   4.984  0.1047 -0.9970 -0.4178
   39POPC   H7S 5151   1.956   7.754   5.039  1.7553 -0.0677 -0.2797
   39POPC   C28 5152   1.937   7.703   4.822 -0.4071 -0.5600  0.0424
   39POPC   H8R 5153   2.012   7.776   4.785 -0.3939  0.1001  1.3480
   39POPC   H8S 5154   1.846   7.764   4.805  0.5000  0.4410 -1.2790
   39POPC   C29 5155   1.943   7.590   4.723  0.3887 -0.0733 -0.4660
   39POPC   H91 5156   1.998   7.505   4.765  0.3952 -0.4441 -1.2229
   39POPC  C210 5157   1.873   7.573   4.610  0.5481  0.3369 -0.6292
   39POPC  H101 5158   1.897   7.489   4.543 -2.7586  1.4287 -3.3697
   39POPC  C211 5159   1.785   7.683   4.558 -0.5005 -0.3931 -0.4226
   39POPC  H11R 5160   1.840   7.780   4.564 -0.7736 -0.2399 -0.3797
   39POPC  H11S 5161   1.688   7.700   4.611 -0.2665 -0.4328  0.0200
   39POPC  C212 5162   1.749   7.661   4.411 -0.2880  0.0225 -0.5380
   39POPC  H12R 5163   1.675   7.578   4.406 -1.5928  1.2066 -1.3975
   39POPC  H12S 5164   1.842   7.631   4.359 -0.2282  1.7760 -1.4906
   39POPC  C213 5165   1.705   7.793   4.346 -0.1256  0.5252  0.3603
   39POPC  H13R 5166   1.699   7.786   4.236  2.3094  0.4679  0.2189
   39POPC  H13S 5167   1.768   7.879   4.376  0.4901  0.6072 -1.1705
   39POPC  C214 5168   1.570   7.839   4.403 -0.3505  0.3576 -0.0326
   39POPC  H14R 5169   1.591   7.872   4.507 -0.8439  2.1201 -0.4761
   39POPC  H14S 5170   1.505   7.749   4.410 -1.1403  0.8394 -1.0868
   39POPC  C215 5171   1.506   7.956   4.329 -0.1189  0.0937 -0.6531
   39POPC  H15R 5172   1.509   7.957   4.218  1.5601  0.0832 -0.6232
   39POPC  H15S 5173   1.563   0.085   4.357 -1.8517  0.6432  1.3888
   39POPC  C216 5174   1.363   0.030   4.369  0.2084  0.6540  0.0543
   39POPC  H16R 5175   1.339   0.025   4.478 -1.1804 -0.2784 -0.2801
   39POPC  H16S 5176   1.303   7.906   4.333  1.2448  0.6366 -1.7976
   39POPC  C217 5177   1.318   0.156   4.294 -0.1740  0.5252  0.0639
   39POPC  H17R 5178   1.367   0.166   4.194  0.4427 -1.5696  0.1173
   39POPC  H17S 5179   1.359   0.235   4.361  1.1941 -0.1924  0.1017
   39POPC  C218 5180   1.166   0.164   4.280 -0.2108 -0.2362  0.0093
   39POPC  H18R 5181   1.136   0.265   4.246  2.4764  0.5013 -0.3518
   39POPC  H18S 5182   1.121   0.155   4.381 -0.9728 -0.1475 -0.3256
   39POPC  H18T 5183   1.120   0.084   4.217 -0.2986  0.6733 -1.0967
   39POPC   C33 5184   1.974   7.044   5.289 -0.0006  0.6891  0.0647
   39POPC   H3X 5185   1.891   7.072   5.221 -0.3212 -0.3259  0.0235
   39POPC   H3Y 5186   1.955   6.935   5.299  0.8890  0.4994 -0.2473
   39POPC   C34 5187   2.113   7.061   5.229 -0.0326 -0.2707 -0.2973
   39POPC   H4X 5188   2.126   7.017   5.127  0.0725 -1.3732  0.1849
   39POPC   H4Y 5189   2.187   7.014   5.297  1.0628 -0.7374 -1.7803
   39POPC   C35 5190   2.159   7.206   5.249  0.1629 -0.4492  0.5778
   39POPC   H5X 5191   2.164   7.229   5.357 -0.4613 -4.1876  1.4775
   39POPC   H5Y 5192   2.088   7.279   5.205  0.5892 -0.3740 -0.0005
   39POPC   C36 5193   2.300   7.223   5.192  0.0046 -0.0916  0.2914
   39POPC   H6X 5194   2.314   7.157   5.104 -0.3192  0.3834 -0.1191
   39POPC   H6Y 5195   2.378   7.205   5.269  1.2872 -0.0233 -0.9734
   39POPC   C37 5196   2.336   7.366   5.149 -0.3784  0.0706  0.5078
   39POPC   H7X 5197   2.431   7.371   5.092 -1.1822 -3.3550 -1.2673
   39POPC   H7Y 5198   2.353   7.428   5.239  0.3332 -0.0459  0.4544
   39POPC   C38 5199   2.231   7.422   5.053  0.2495 -0.4668 -0.5003
   39POPC   H8X 5200   2.259   7.528   5.034 -0.5116 -0.0073  0.9203
   39POPC   H8Y 5201   2.135   7.451   5.101  1.3189  0.2060  1.2595
   39POPC   C39 5202   2.189   7.340   4.931 -0.2095  0.1245 -0.7477
   39POPC   H9X 5203   2.127   7.401   4.862 -0.2378  1.7527  0.6906
   39POPC   H9Y 5204   2.126   7.252   4.958  2.9439 -2.7806 -2.3441
   39POPC  C310 5205   2.311   7.296   4.848 -0.0670 -0.3824 -0.2743
   39POPC  H10X 5206   2.372   7.227   4.909 -0.6064 -0.4135  0.2395
   39POPC  H10Y 5207   2.376   7.381   4.819 -2.4748  1.3797 -0.7216
   39POPC  C311 5208   2.272   7.202   4.734  0.2162 -0.5582 -0.2271
   39POPC  H11X 5209   2.197   7.134   4.781 -0.8936  0.3773 -0.6034
   39POPC  H11Y 5210   2.362   7.145   4.702 -1.1819 -3.5358  0.9205
   39POPC  C312 5211   2.196   7.254   4.612 -0.2546 -0.4294  0.1171
   39POPC  H12X 5212   2.237   7.350   4.574 -0.9055  0.0332  0.5861
   39POPC  H12Y 5213   2.094   7.270   4.652 -0.6895 -0.6927 -0.8692
   39POPC  C313 5214   2.174   7.155   4.497 -0.0521  0.4508 -0.6944
   39POPC  H13X 5215   2.069   7.167   4.463 -1.2896  1.0882  3.1299
   39POPC  H13Y 5216   2.176   7.049   4.533 -0.2333 -0.1590 -2.4286
   39POPC  C314 5217   2.287   7.151   4.394  0.2157 -0.2092 -0.3846
   39POPC  H14X 5218   2.383   7.153   4.449  1.1878 -0.8161 -2.0112
   39POPC  H14Y 5219   2.280   7.248   4.339 -2.4034  0.9928  1.9303
   39POPC  C315 5220   2.291   7.024   4.309 -0.2263 -0.4961  0.0272
   39POPC  H15X 5221   2.192   7.004   4.262  0.3121  0.8075 -1.6840
   39POPC  H15Y 5222   2.302   6.931   4.369 -0.2929 -1.4149 -1.3706
   39POPC  C316 5223   2.400   7.022   4.203  0.2614  0.2657  0.5103
   39POPC  H16X 5224   2.424   6.917   4.179  3.2610  0.6683  1.5951
   39POPC  H16Y 5225   2.490   7.073   4.242  0.6718 -0.2607  0.2556
   39POPC  H16Z 5226   2.378   7.072   4.106 -1.9458 -1.6647 -0.0430
   40POPC     N 5227   6.835   4.905   6.572  0.1451 -0.4405 -0.1182
   40POPC   C12 5228   6.726   4.901   6.468 -0.0992  0.5971  0.0913
   40POPC  H12A 5232   6.649   4.844   6.519 -0.9920  2.4195  0.8307
   40POPC  H12B 5233   6.761   4.853   6.378 -0.9951  0.8917 -0.4250
   40POPC   C13 5229   6.959   4.969   6.514 -0.0194 -0.2152 -0.2227
   40POPC  H13A 5234   7.041   4.960   6.584  0.6915 -1.3351 -1.1677
   40POPC  H13B 5235   6.987   4.921   6.421  0.4384 -0.7234  0.1774
   40POPC  H13C 5236   6.933   5.070   6.485  0.8060 -0.3905 -1.6330
   40POPC   C14 5230   6.780   4.972   6.696  0.0249 -0.5517 -0.1106
   40POPC  H14A 5237   6.766   5.075   6.666  0.5873 -0.1383  1.0326
   40POPC  H14B 5238   6.679   4.936   6.706 -1.0291  2.5005  0.6974
   40POPC  H14C 5239   6.843   4.972   6.784  2.1873  0.2379 -1.6049
   40POPC   C15 5231   6.873   4.766   6.616 -0.0971 -0.2247  0.7843
   40POPC  H15A 5240   6.952   4.754   6.689 -0.4247  1.4128  1.4293
   40POPC  H15B 5241   6.890   4.710   6.525 -2.8396  0.1874 -0.0152
   40POPC  H15C 5242   6.780   4.720   6.644  0.0797 -1.2590 -0.3087
   40POPC   C11 5243   6.664   5.035   6.428  0.1317  0.5210 -0.5188
   40POPC  H11A 5244   6.614   5.074   6.519 -0.2403 -0.7865 -0.1466
   40POPC  H11B 5245   6.597   5.025   6.340  0.5616  1.2469 -0.9385
   40POPC     P 5246   6.727   5.263   6.332 -0.2681  0.2398 -0.3092
   40POPC   O13 5247   6.850   5.344   6.319  0.0246 -0.1073  0.2648
   40POPC   O14 5248   6.617   5.321   6.414  0.0623  0.2063  0.1601
   40POPC   O12 5249   6.771   5.124   6.397  0.2609  0.5314 -0.0442
   40POPC   O11 5250   6.672   5.210   6.192 -0.9210 -0.0664  0.0566
   40POPC    C1 5251   6.763   5.195   6.082 -0.4853  0.3100  0.3614
   40POPC    HA 5252   6.722   5.114   6.017 -0.4623  0.9641 -0.4747
   40POPC    HB 5253   6.863   5.162   6.117  0.2754  0.6975 -1.3660
   40POPC    C2 5254   6.781   5.325   6.001 -0.0968  0.0078 -0.0393
   40POPC    HS 5255   6.802   5.408   6.072  1.8316 -0.5982  0.1292
   40POPC   O21 5256   6.666   5.347   5.919 -0.1087 -0.2670 -0.0973
   40POPC   C21 5257   6.660   5.471   5.870 -0.0470 -0.1096  0.2971
   40POPC   O22 5258   6.744   5.560   5.881 -0.1584  0.0150  0.1330
   40POPC   C22 5259   6.531   5.477   5.790 -0.1556  0.2260  0.4975
   40POPC   H2R 5260   6.447   5.491   5.862  1.3028  1.2243  2.0646
   40POPC   H2S 5261   6.518   5.377   5.744  0.7102 -0.9453  2.6862
   40POPC    C3 5262   6.911   5.319   5.919  0.1154  0.3771  0.2681
   40POPC    HX 5263   6.997   5.315   5.989  1.4698  0.6558 -1.3406
   40POPC    HY 5264   6.924   5.415   5.864  1.6343 -0.3060 -0.5781
   40POPC   O31 5265   6.913   5.209   5.827  0.0877  0.1831  0.4986
   40POPC   C31 5266   7.015   5.223   5.742 -0.1344 -0.4326  0.1319
   40POPC   O32 5267   7.094   5.314   5.756  0.1240 -0.6818  0.3166
   40POPC   C32 5268   7.003   5.133   5.620  0.5038 -0.1427 -0.1424
   40POPC   H2X 5269   6.971   5.031   5.649  0.7913  0.5669  2.8596
   40POPC   H2Y 5270   7.099   5.113   5.566  0.9439 -1.9552  1.2459
   40POPC   C23 5271   6.538   5.578   5.676 -0.5499 -0.6301 -0.2877
   40POPC   H3R 5272   6.641   5.566   5.636  0.0474 -0.3404  1.1507
   40POPC   H3S 5273   6.526   5.675   5.728  0.2792 -0.0795 -1.0988
   40POPC   C24 5274   6.443   5.566   5.557 -0.0796 -0.4964 -0.6782
   40POPC   H4R 5275   6.345   5.552   5.607  0.2412  1.1442  0.4298
   40POPC   H4S 5276   6.488   5.480   5.502  2.7165  0.3815  0.1683
   40POPC   C25 5277   6.435   5.690   5.467  0.6349  0.0819  0.0525
   40POPC   H5R 5278   6.544   5.710   5.461  0.8571 -1.4270 -1.2592
   40POPC   H5S 5279   6.371   5.755   5.531  0.2299 -0.8478  0.6082
   40POPC   C26 5280   6.371   5.688   5.328 -0.0449 -0.5144  0.3657
   40POPC   H6R 5281   6.387   5.779   5.266 -2.7662 -1.1135 -1.3224
   40POPC   H6S 5282   6.261   5.684   5.339 -0.0726 -0.6119  0.0621
   40POPC   C27 5283   6.425   5.566   5.254 -0.5861 -0.5931  0.0978
   40POPC   H7R 5284   6.404   5.488   5.331  0.6206  0.1452  1.1965
   40POPC   H7S 5285   6.536   5.564   5.257 -0.6011 -1.0653  0.4934
   40POPC   C28 5286   6.359   5.546   5.118 -0.2521 -0.1431 -0.1320
   40POPC   H8R 5287   6.249   5.550   5.134 -0.0942  0.5254  0.7875
   40POPC   H8S 5288   6.397   5.443   5.100 -0.2889 -0.0115 -1.0255
   40POPC   C29 5289   6.409   5.639   5.011 -0.3507  0.3126  0.2206
   40POPC   H91 5290   6.508   5.680   5.037  0.3634  0.3897 -2.5073
   40POPC  C210 5291   6.354   5.669   4.893  0.6884  0.5044 -0.2194
   40POPC  H101 5292   6.402   5.741   4.824 -0.0266  0.5456 -0.6795
   40POPC  C211 5293   6.229   5.607   4.837  0.2995  0.1112  1.0741
   40POPC  H11R 5294   6.189   5.533   4.909  0.8139  1.5236  2.8656
   40POPC  H11S 5295   6.250   5.549   4.745  1.2476  0.5539  0.9989
   40POPC  C212 5296   6.130   5.707   4.777  0.4546 -0.3024  0.1266
   40POPC  H12R 5297   6.095   5.767   4.864  0.6606 -0.0231  0.0189
   40POPC  H12S 5298   6.041   5.653   4.739  0.3419  1.1208 -1.6990
   40POPC  C213 5299   6.202   5.798   4.677 -0.4314  0.3750  0.1002
   40POPC  H13R 5300   6.208   5.746   4.579  0.9316  3.0028 -1.2453
   40POPC  H13S 5301   6.308   5.820   4.704  0.7863 -0.5810 -3.5768
   40POPC  C214 5302   6.144   5.938   4.662 -0.1623  0.4712 -0.0460
   40POPC  H14R 5303   6.184   5.988   4.753 -1.9330 -1.2609  1.7414
   40POPC  H14S 5304   6.033   5.934   4.660 -0.0655 -3.0814 -0.4251
   40POPC  C215 5305   6.204   6.008   4.539 -0.1619  0.0930 -0.2592
   40POPC  H15R 5306   6.150   6.099   4.505 -0.7494 -0.5190 -0.9840
   40POPC  H15S 5307   6.179   5.939   4.456 -0.3196 -0.3478  0.1442
   40POPC  C216 5308   6.351   6.047   4.539 -0.4161  1.0566 -0.2854
   40POPC  H16R 5309   6.407   5.958   4.575 -0.9063  1.3184  1.1588
   40POPC  H16S 5310   6.363   6.127   4.615 -0.0091 -0.0062  0.7919
   40POPC  C217 5311   6.403   6.085   4.400  0.3398  0.4245 -0.1787
   40POPC  H17R 5312   6.405   5.994   4.336 -3.0166 -1.7128  2.5754
   40POPC  H17S 5313   6.508   6.122   4.394  0.4075 -0.0159 -1.8084
   40POPC  C218 5314   6.318   6.183   4.319 -0.3353  0.0985  0.1303
   40POPC  H18R 5315   6.384   6.217   4.236  1.1141  0.9283  1.5944
   40POPC  H18S 5316   6.268   6.259   4.382  2.1166  0.7358  1.3528
   40POPC  H18T 5317   6.233   6.120   4.285 -0.9000 -0.0160  1.7177
   40POPC   C33 5318   6.901   5.200   5.529  0.3972 -0.2086 -0.0722
   40POPC   H3X 5319   6.915   5.165   5.424  0.8768  1.9080 -0.7404
   40POPC   H3Y 5320   6.895   5.311   5.527  1.0298 -0.1609  0.5589
   40POPC   C34 5321   6.756   5.155   5.547  0.2533  0.2869  0.0309
   40POPC   H4X 5322   6.730   5.173   5.654 -0.0750 -0.4486  0.0733
   40POPC   H4Y 5323   6.748   5.044   5.548  0.4145  0.2307 -2.0784
   40POPC   C35 5324   6.649   5.209   5.452  0.3327  0.3157 -0.0421
   40POPC   H5X 5325   6.642   5.319   5.444  4.5546  0.5286 -2.0988
   40POPC   H5Y 5326   6.549   5.169   5.481  0.5139 -1.0267 -1.2387
   40POPC   C36 5327   6.669   5.150   5.312 -0.5526 -0.1492  0.0203
   40POPC   H6X 5328   6.685   5.041   5.303 -1.1753 -0.3914  1.7064
   40POPC   H6Y 5329   6.763   5.203   5.286 -0.4338 -0.5935 -0.4635
   40POPC   C37 5330   6.557   5.186   5.214 -0.3441  0.1128 -0.1242
   40POPC   H7X 5331   6.542   5.295   5.201 -0.0059  0.3222  1.1511
   40POPC   H7Y 5332   6.465   5.145   5.263 -0.2009  0.6247  0.5910
   40POPC   C38 5333   6.563   5.131   5.072 -1.0713 -0.1412 -0.0600
   40POPC   H8X 5334   6.547   5.022   5.057  1.8513 -0.4241 -1.4229
   40POPC   H8Y 5335   6.669   5.144   5.043 -1.2613 -0.1263 -0.7625
   40POPC   C39 5336   6.477   5.201   4.966 -0.6104  0.5413  0.0160
   40POPC   H9X 5337   6.479   5.312   4.972 -1.8422  0.5393  0.7022
   40POPC   H9Y 5338   6.375   5.159   4.985 -0.6717  1.1895  1.1994
   40POPC  C310 5339   6.518   5.176   4.821  0.3367  0.1381  0.3519
   40POPC  H10X 5340   6.613   5.229   4.799  0.7672 -0.4422  0.7815
   40POPC  H10Y 5341   6.432   5.210   4.760 -0.4294 -0.5177  1.0555
   40POPC  C311 5342   6.518   5.034   4.764  0.0891  0.1827  0.2425
   40POPC  H11X 5343   6.425   4.977   4.785 -0.1452  1.2622  2.1764
   40POPC  H11Y 5344   6.598   4.974   4.810 -1.5637 -1.3197  1.2055
   40POPC  C312 5345   6.520   5.044   4.611  0.5468 -0.2213  0.2228
   40POPC  H12X 5346   6.609   5.105   4.584  0.9004  0.0987  2.0237
   40POPC  H12Y 5347   6.427   5.101   4.590  0.7891  0.6721  1.4930
   40POPC  C313 5348   6.501   4.919   4.526 -0.0066 -0.1431  0.2325
   40POPC  H13X 5349   6.593   4.861   4.549 -0.4080 -0.8267  0.1387
   40POPC  H13Y 5350   6.513   4.947   4.419  2.1662 -1.4436  0.1226
   40POPC  C314 5351   6.384   4.824   4.555 -0.0855 -0.1840 -0.2281
   40POPC  H14X 5352   6.294   4.881   4.521  1.1362  0.2338 -2.8874
   40POPC  H14Y 5353   6.382   4.800   4.663  2.3637 -1.2176 -0.3741
   40POPC  C315 5354   6.400   4.702   4.464  0.3896 -0.5286  0.3164
   40POPC  H15X 5355   6.489   4.642   4.491 -2.1623 -3.4097  2.6780
   40POPC  H15Y 5356   6.411   4.733   4.358 -1.5281 -1.2917 -0.1395
   40POPC  C316 5357   6.283   4.604   4.474 -0.2562  0.1028 -0.9595
   40POPC  H16X 5358   6.251   4.560   4.377 -1.9761  0.3503 -0.5170
   40POPC  H16Y 5359   6.189   4.655   4.506 -0.6036 -0.6090 -0.8226
   40POPC  H16Z 5360   6.308   4.531   4.554 -3.3668  1.4380  1.3331
   41POPC     N 5361   1.373   0.884   6.175  0.8088  0.4066  0.2808
   41POPC   C12 5362   1.357   0.898   6.026 -0.0986  0.2646  0.3630
   41POPC  H12A 5366   1.293   0.817   5.995 -2.0355  2.1953 -0.7967
   41POPC  H12B 5367   1.448   0.901   5.967 -0.2207 -1.4251  0.0726
   41POPC   C13 5363   1.457   0.762   6.205 -0.2073 -0.2046  0.6649
   41POPC  H13A 5368   1.476   0.739   6.309  0.3856 -1.6749  0.2597
   41POPC  H13B 5369   1.416   0.678   6.151  2.6561 -1.2890  0.0443
   41POPC  H13C 5370   1.558   0.780   6.171 -0.9464  2.3212 -0.2754
   41POPC   C14 5364   1.437   1.008   6.234  0.0027  0.6130  0.7278
   41POPC  H14A 5371   1.366   1.089   6.241 -0.6879  0.0501  0.3327
   41POPC  H14B 5372   1.487   0.982   6.326  0.2510  3.1450  1.3410
   41POPC  H14C 5373   1.510   1.024   6.156 -1.6625  0.7499 -0.8303
   41POPC   C15 5365   1.237   0.859   6.235  0.6183  0.6893 -0.0377
   41POPC  H15A 5374   1.207   0.759   6.209 -0.5570  0.8070  0.8123
   41POPC  H15B 5375   1.164   0.921   6.185 -0.2482 -0.2784  0.0114
   41POPC  H15C 5376   1.246   0.866   6.343 -0.6557 -0.3283  0.1511
   41POPC   C11 5377   1.295   1.029   5.977  0.3549  0.3800  0.0940
   41POPC  H11A 5378   1.301   1.034   5.866  0.3151  1.2640  0.1244
   41POPC  H11B 5379   1.350   1.115   6.021  2.6833  0.4060 -2.7149
   41POPC     P 5380   1.090   1.165   5.988  0.1843 -0.3772 -0.0354
   41POPC   O13 5381   1.115   1.240   6.113  0.2505 -0.3955 -0.0383
   41POPC   O14 5382   0.949   1.158   5.942  0.2747 -0.2910 -0.3273
   41POPC   O12 5383   1.155   1.020   6.003  0.3549 -0.3130 -0.1499
   41POPC   O11 5384   1.168   1.234   5.866 -0.3192 -0.0453 -0.1744
   41POPC    C1 5385   1.224   1.363   5.889 -0.3719 -0.0493 -0.0236
   41POPC    HA 5386   1.302   1.382   5.812  2.0975 -0.3076  2.3297
   41POPC    HB 5387   1.266   1.374   5.991 -0.0031 -0.0773 -0.1728
   41POPC    C2 5388   1.117   1.473   5.875 -0.0097  0.3738  0.4945
   41POPC    HS 5389   1.049   1.459   5.962  0.8857 -2.0794  0.8313
   41POPC   O21 5390   1.052   1.445   5.750  0.3977  0.3360  0.2911
   41POPC   C21 5391   0.927   1.490   5.746  0.2085 -0.2253 -0.1921
   41POPC   O22 5392   0.884   1.571   5.826  0.3375 -0.2274 -0.1207
   41POPC   C22 5393   0.866   1.432   5.619 -0.3371  0.1930 -0.1217
   41POPC   H2R 5394   0.757   1.453   5.624 -0.7479 -2.0265  0.3465
   41POPC   H2S 5395   0.866   1.323   5.603  0.9859  0.3170 -1.0913
   41POPC    C3 5396   1.173   1.616   5.874 -0.2340  0.4628 -0.3433
   41POPC    HX 5397   1.254   1.632   5.949  0.4111  0.3516 -1.0161
   41POPC    HY 5398   1.089   1.687   5.887  0.1027  0.8828 -0.4468
   41POPC   O31 5399   1.229   1.638   5.745  0.7192 -0.3199 -0.0661
   41POPC   C31 5400   1.270   1.762   5.719 -0.0654 -0.0840 -0.1896
   41POPC   O32 5401   1.269   1.858   5.794  0.1297 -0.0792 -0.1925
   41POPC   C32 5402   1.319   1.766   5.575 -0.3968 -0.2420 -0.3063
   41POPC   H2X 5403   1.373   1.671   5.552 -0.0083 -0.2939  0.7936
   41POPC   H2Y 5404   1.387   1.853   5.560  1.2970 -1.9339 -3.0780
   41POPC   C23 5405   0.927   1.500   5.496  0.2852  0.0628  0.1145
   41POPC   H3R 5406   1.034   1.470   5.509 -0.3697 -1.5354  2.1404
   41POPC   H3S 5407   0.929   1.609   5.518  2.4485 -0.0033  0.3483
   41POPC   C24 5408   0.870   1.476   5.356  0.3422  0.0741  0.0890
   41POPC   H4R 5409   0.891   1.367   5.349 -1.3290 -0.1767 -1.2145
   41POPC   H4S 5410   0.916   1.533   5.273  2.1691 -1.7901 -0.2389
   41POPC   C25 5411   0.719   1.496   5.352  0.3057 -0.2824 -0.3921
   41POPC   H5R 5412   0.704   1.605   5.371  2.7747 -0.1945  1.3090
   41POPC   H5S 5413   0.660   1.447   5.432 -1.6238  1.0176 -0.9673
   41POPC   C26 5414   0.653   1.457   5.220  0.2970 -0.2609 -0.3945
   41POPC   H6R 5415   0.543   1.445   5.232 -0.1393  3.7622  0.5773
   41POPC   H6S 5416   0.702   1.367   5.177 -1.2896 -1.5924  0.5250
   41POPC   C27 5417   0.682   1.559   5.109 -0.2870  0.6511  0.2784
   41POPC   H7R 5418   0.789   1.557   5.082 -0.2671  1.6908  0.2883
   41POPC   H7S 5419   0.648   1.657   5.147  1.7541  1.3951  0.1891
   41POPC   C28 5420   0.595   1.533   4.986  0.6071 -0.3777 -0.1490
   41POPC   H8R 5421   0.485   1.524   4.999  0.8929 -0.1743  2.6964
   41POPC   H8S 5422   0.644   1.446   4.937  0.1635 -0.4381 -0.4978
   41POPC   C29 5423   0.617   1.652   4.896  0.2170 -0.2265 -0.0449
   41POPC   H91 5424   0.713   1.701   4.917 -0.3411  0.0599  1.9816
   41POPC  C210 5425   0.549   1.675   4.782  0.2923  0.3785  0.0347
   41POPC  H101 5426   0.588   1.751   4.713  0.7077  1.1546  1.0933
   41POPC  C211 5427   0.432   1.605   4.720  0.3271  0.5099 -0.1812
   41POPC  H11R 5428   0.395   1.526   4.790 -0.4070  1.2612  0.2933
   41POPC  H11S 5429   0.455   1.545   4.629  2.5126  0.2328  0.5145
   41POPC  C212 5430   0.325   1.708   4.686 -0.5548  0.0407  1.1247
   41POPC  H12R 5431   0.364   1.780   4.611 -0.7209 -1.8635 -0.8242
   41POPC  H12S 5432   0.293   1.758   4.780  0.1484  0.8505  0.9393
   41POPC  C213 5433   0.203   1.646   4.618  0.2655  0.1112 -0.4193
   41POPC  H13R 5434   0.156   1.592   4.702 -0.3112 -0.1733 -0.9164
   41POPC  H13S 5435   0.243   1.571   4.546  2.5326  1.1725 -0.3014
   41POPC  C214 5436   0.104   1.736   4.543 -0.1396  0.3510  0.3998
   41POPC  H14R 5437   0.075   1.824   4.604  0.4487  0.4591  0.5326
   41POPC  H14S 5438   0.021   1.668   4.517  0.3189 -0.8267  1.9775
   41POPC  C215 5439   0.170   1.778   4.411  0.5374 -0.2709  0.5416
   41POPC  H15R 5440   0.254   1.711   4.383  1.1104 -0.0920  1.7777
   41POPC  H15S 5441   0.225   1.872   4.432  1.6602 -0.8365  0.1818
   41POPC  C216 5442   0.082   1.805   4.290  0.5066 -0.4304  0.5280
   41POPC  H16R 5443   0.129   1.855   4.203 -0.4335  0.9260  0.7887
   41POPC  H16S 5444   0.013   1.884   4.328  0.0774 -0.8577  0.6494
   41POPC  C217 5445   0.005   1.687   4.230  0.6211 -0.4492  0.3643
   41POPC  H17R 5446   7.902   1.651   4.313  2.0727 -0.0867  1.6905
   41POPC  H17S 5447   0.074   1.602   4.209 -0.7083 -1.4378 -0.2193
   41POPC  C218 5448   7.872   1.710   4.113 -0.0309 -0.0260  0.9716
   41POPC  H18R 5449   7.821   1.614   4.089  0.4282  0.2600 -1.1855
   41POPC  H18S 5450   7.930   1.749   4.027  0.6327  0.0294  1.4396
   41POPC  H18T 5451   7.791   1.782   4.137  0.0334  0.1917  0.5206
   41POPC   C33 5452   1.198   1.795   5.486 -0.4640 -0.4269 -0.2767
   41POPC   H3X 5453   1.117   1.857   5.530 -1.9172 -0.6223 -2.5779
   41POPC   H3Y 5454   1.139   1.702   5.477  0.2565 -0.8181 -1.1066
   41POPC   C34 5455   1.224   1.835   5.340  0.5089 -0.5648 -0.1468
   41POPC   H4X 5456   1.297   1.761   5.300  0.2044 -0.5618 -0.7081
   41POPC   H4Y 5457   1.253   1.942   5.334 -0.2405 -0.3392  0.2576
   41POPC   C35 5458   1.105   1.811   5.247  0.6924  0.8704 -0.7494
   41POPC   H5X 5459   1.073   1.705   5.247  1.7103  0.5577 -0.5106
   41POPC   H5Y 5460   1.140   1.824   5.142 -0.2197 -2.4502 -1.5072
   41POPC   C36 5461   0.978   1.889   5.281  0.2768  0.0964 -0.5372
   41POPC   H6X 5462   1.000   1.996   5.303 -1.2514 -0.0087  1.6791
   41POPC   H6Y 5463   0.938   1.833   5.369 -1.4117  2.4527  0.2475
   41POPC   C37 5464   0.866   1.862   5.181  0.2540 -0.6421 -0.3220
   41POPC   H7X 5465   0.853   1.753   5.167  4.5493 -1.2848  0.2159
   41POPC   H7Y 5466   0.894   1.878   5.074 -0.9181 -1.0919 -0.7012
   41POPC   C38 5467   0.726   1.914   5.217  0.5305  0.0215 -0.1937
   41POPC   H8X 5468   0.676   1.846   5.289 -1.2854 -1.3992 -2.6807
   41POPC   H8Y 5469   0.662   1.903   5.127 -1.5566 -1.9167  1.4567
   41POPC   C39 5470   0.722   2.059   5.266 -0.9415 -0.1489  0.1950
   41POPC   H9X 5471   0.799   2.060   5.346 -1.7538 -1.2574  1.0131
   41POPC   H9Y 5472   0.624   2.069   5.318 -1.0496  2.6833 -0.4734
   41POPC  C310 5473   0.760   2.166   5.164 -0.6547 -0.5117 -0.0787
   41POPC  H10X 5474   0.870   2.171   5.153 -0.5289 -0.3906  1.2131
   41POPC  H10Y 5475   0.725   2.261   5.209 -1.2627 -1.1877  0.8963
   41POPC  C311 5476   0.687   2.153   5.029 -0.8016 -0.3353 -0.0169
   41POPC  H11X 5477   0.580   2.170   5.053 -1.4549 -1.4553 -2.0714
   41POPC  H11Y 5478   0.710   2.054   4.984  0.4433  0.3186 -0.8473
   41POPC  C312 5479   0.733   2.264   4.934 -0.2111 -0.4581  0.1231
   41POPC  H12X 5480   0.838   2.288   4.961  0.5129 -3.3480  0.0765
   41POPC  H12Y 5481   0.673   2.357   4.943  1.4137  0.4330  2.1622
   41POPC  C313 5482   0.728   2.214   4.789  0.2947  0.2614 -0.1433
   41POPC  H13X 5483   0.757   2.108   4.777  1.0457  0.5756 -1.1633
   41POPC  H13Y 5484   0.791   2.287   4.733 -1.4928  0.9623 -1.2499
   41POPC  C314 5485   0.587   2.221   4.732  0.0238 -0.6400  0.4187
   41POPC  H14X 5486   0.558   2.326   4.710  0.4255 -0.5501  0.3209
   41POPC  H14Y 5487   0.519   2.187   4.814 -1.5457  0.9739 -0.1846
   41POPC  C315 5488   0.552   2.142   4.606  0.2412  0.3427 -0.2613
   41POPC  H15X 5489   0.598   2.041   4.615 -0.2100  0.0568 -1.1152
   41POPC  H15Y 5490   0.599   2.200   4.523  0.1198  0.1362 -0.4754
   41POPC  C316 5491   0.406   2.128   4.563  0.0847  0.4952  0.2205
   41POPC  H16X 5492   0.358   2.224   4.535 -0.3274  0.5536  1.0941
   41POPC  H16Y 5493   0.343   2.085   4.644  0.5176 -0.0759  0.2568
   41POPC  H16Z 5494   0.421   2.067   4.471 -0.8575  0.5439  0.0243
   42POPC     N 5495   4.007   6.581   6.277  0.4098  0.1638  0.8730
   42POPC   C12 5496   4.074   6.693   6.203 -0.1289  0.0308  0.1807
   42POPC  H12A 5500   4.014   6.781   6.221 -1.8674 -0.7810 -1.5096
   42POPC  H12B 5501   4.067   6.656   6.102  2.8592 -0.9354  0.2498
   42POPC   C13 5497   4.036   6.595   6.425  0.1222  0.0131  0.9469
   42POPC  H13A 5502   4.144   6.598   6.432  0.1487  1.1017  0.2825
   42POPC  H13B 5503   3.996   6.690   6.457  1.2797  0.5763  0.7715
   42POPC  H13C 5504   3.987   6.514   6.477  1.3686  0.3967  2.7702
   42POPC   C14 5498   3.857   6.586   6.259  0.4747 -0.4361  0.1441
   42POPC  H14A 5505   3.810   6.523   6.332  0.6688  3.2700  3.6899
   42POPC  H14B 5506   3.830   6.689   6.279  1.6575 -0.1353  0.2338
   42POPC  H14C 5507   3.837   6.568   6.154  1.8081  0.3349 -0.2638
   42POPC   C15 5499   4.046   6.439   6.244 -0.8058 -0.0711  0.4209
   42POPC  H15A 5508   4.048   6.373   6.329 -1.6471 -0.8690 -0.1713
   42POPC  H15B 5509   4.150   6.440   6.216 -0.5610  2.7985  1.2839
   42POPC  H15C 5510   3.994   6.390   6.163 -0.6777 -0.3312  0.4920
   42POPC   C11 5511   4.223   6.728   6.215 -0.0924 -0.2938  0.6703
   42POPC  H11A 5512   4.240   6.761   6.320  1.3957 -2.7218  1.2392
   42POPC  H11B 5513   4.238   6.812   6.144 -0.3621 -0.3908  0.4966
   42POPC     P 5514   4.453   6.667   6.163  0.1184 -0.3171  0.2083
   42POPC   O13 5515   4.556   6.560   6.163 -0.1646 -0.5978 -0.6109
   42POPC   O14 5516   4.484   6.785   6.247 -0.1529  0.4809 -0.7991
   42POPC   O12 5517   4.304   6.614   6.185 -0.1958  0.0572 -0.9708
   42POPC   O11 5518   4.441   6.728   6.015  0.6650  0.2410  0.3943
   42POPC    C1 5519   4.534   6.675   5.921  0.3791  0.2725  0.0942
   42POPC    HA 5520   4.490   6.717   5.829  1.1750 -0.1697 -0.4997
   42POPC    HB 5521   4.519   6.565   5.911 -2.6443  0.7850 -1.5633
   42POPC    C2 5522   4.681   6.719   5.920  0.4993 -0.1157  0.5471
   42POPC    HS 5523   4.708   6.730   6.028  0.9779 -1.4433  0.5746
   42POPC   O21 5524   4.700   6.845   5.856 -0.1167 -0.2584  0.0872
   42POPC   C21 5525   4.813   6.914   5.872 -0.1899 -0.1040 -0.0486
   42POPC   O22 5526   4.905   6.879   5.945 -0.3274 -0.2557  0.0513
   42POPC   C22 5527   4.807   7.039   5.786  0.2588 -0.1234 -0.1090
   42POPC   H2R 5528   4.891   7.107   5.813  1.1326 -1.8972  1.7917
   42POPC   H2S 5529   4.709   7.091   5.794  0.3609 -0.1392  1.4106
   42POPC    C3 5530   4.766   6.608   5.856 -0.3944 -0.5936  0.1826
   42POPC    HX 5531   4.732   6.508   5.891 -0.3839 -1.0472 -1.0824
   42POPC    HY 5532   4.873   6.612   5.887 -0.2688  1.3050 -0.4775
   42POPC   O31 5533   4.769   6.616   5.713 -0.8552 -0.1790  0.1949
   42POPC   C31 5534   4.703   6.524   5.643 -0.6447 -0.0524 -0.1690
   42POPC   O32 5535   4.629   6.439   5.690 -0.3142 -0.1646  0.1548
   42POPC   C32 5536   4.712   6.565   5.497  1.2490  0.5448  0.0992
   42POPC   H2X 5537   4.818   6.596   5.485  1.8055 -0.2819  2.5502
   42POPC   H2Y 5538   4.657   6.660   5.475 -1.1049 -0.7405  0.2457
   42POPC   C23 5539   4.832   7.004   5.639 -0.2191 -0.9480  0.0014
   42POPC   H3R 5540   4.861   6.897   5.638 -0.6550 -1.0636 -1.7321
   42POPC   H3S 5541   4.916   7.066   5.601  0.2060 -0.7261  1.2775
   42POPC   C24 5542   4.714   7.029   5.545 -0.2422  0.2798  0.3407
   42POPC   H4R 5543   4.697   7.138   5.541  0.3814  0.3249 -1.5234
   42POPC   H4S 5544   4.620   6.976   5.573  0.9404 -2.8171 -1.2129
   42POPC   C25 5545   4.753   6.983   5.404 -0.3698  0.2609  0.3111
   42POPC   H5R 5546   4.789   6.878   5.404 -0.9555  0.0526  1.1608
   42POPC   H5S 5547   4.835   7.048   5.367  0.1892 -1.5825 -1.7870
   42POPC   C26 5548   4.635   6.976   5.306 -0.2981  1.0677  0.1674
   42POPC   H6R 5549   4.596   7.080   5.306  0.6270  1.4458 -1.6187
   42POPC   H6S 5550   4.547   6.912   5.326 -0.0011  0.8874  0.9190
   42POPC   C27 5551   4.689   6.941   5.167 -0.1197  0.0154  0.5028
   42POPC   H7R 5552   4.735   6.840   5.179  1.4403  0.8171  1.4631
   42POPC   H7S 5553   4.772   7.010   5.141 -0.3435 -0.3464 -1.2341
   42POPC   C28 5554   4.594   6.930   5.048 -0.1659  0.0424  0.5370
   42POPC   H8R 5555   4.668   6.900   4.972  0.2918  0.5104  0.7962
   42POPC   H8S 5556   4.557   7.033   5.025 -2.3358 -0.9041 -0.4124
   42POPC   C29 5557   4.486   6.826   5.042 -0.2203  0.1113  0.3335
   42POPC   H91 5558   4.471   6.777   5.139  0.7512  2.4407  1.6962
   42POPC  C210 5559   4.400   6.807   4.941 -0.7260  0.5669  0.6801
   42POPC  H101 5560   4.333   6.721   4.957 -0.1033  0.5080  3.2908
   42POPC  C211 5561   4.402   6.870   4.805 -0.5431 -0.1121  0.3699
   42POPC  H11R 5562   4.506   6.909   4.799  0.1004 -1.4770  2.0182
   42POPC  H11S 5563   4.324   6.945   4.783  0.3698  0.5400 -0.6734
   42POPC  C212 5564   4.381   6.767   4.693 -0.3758  0.1815  0.0686
   42POPC  H12R 5565   4.447   6.679   4.703  0.0730  0.3790 -1.0580
   42POPC  H12S 5566   4.419   6.811   4.598  0.9295 -1.1029 -0.0192
   42POPC  C213 5567   4.241   6.708   4.677 -0.1025 -0.3608 -0.3414
   42POPC  H13R 5568   4.218   6.645   4.765 -0.2057 -0.8243 -0.7028
   42POPC  H13S 5569   4.243   6.645   4.585 -2.8558  0.5596 -1.1057
   42POPC  C214 5570   4.133   6.816   4.661  0.1176  0.0099  0.6515
   42POPC  H14R 5571   4.168   6.896   4.591 -0.9727  0.8415  1.0527
   42POPC  H14S 5572   4.127   6.867   4.759  3.0113 -0.5208  1.1491
   42POPC  C215 5573   3.991   6.786   4.614  0.2271  0.0164  0.3114
   42POPC  H15R 5574   3.925   6.873   4.638 -0.1904 -0.9548  2.7750
   42POPC  H15S 5575   3.949   6.699   4.668 -0.7310  0.7104  0.7068
   42POPC  C216 5576   3.973   6.753   4.465 -1.0206 -0.4709  0.5611
   42POPC  H16R 5577   4.009   6.654   4.433  2.7182  0.1726  2.4625
   42POPC  H16S 5578   4.040   6.822   4.410 -0.2541 -0.7988  1.0730
   42POPC  C217 5579   3.831   6.763   4.410 -0.6695  0.0432 -0.2661
   42POPC  H17R 5580   3.816   6.873   4.409  3.4252  0.7238  2.4294
   42POPC  H17S 5581   3.758   6.716   4.480 -0.0817 -0.1846  0.1975
   42POPC  C218 5582   3.820   6.716   4.265  0.1475  0.2382 -0.3929
   42POPC  H18R 5583   3.728   6.761   4.223  0.1758  0.6268 -0.0472
   42POPC  H18S 5584   3.823   6.606   4.247  0.2773 -0.0684  1.3597
   42POPC  H18T 5585   3.899   6.765   4.204  0.5385 -1.6571 -1.4604
   42POPC   C33 5586   4.666   6.446   5.413  0.3648  1.1053 -0.2256
   42POPC   H3X 5587   4.566   6.403   5.434  0.4000  1.7833  1.3676
   42POPC   H3Y 5588   4.739   6.367   5.442  2.2326  3.6098  2.0947
   42POPC   C34 5589   4.684   6.484   5.266 -0.1751  0.3049 -0.4990
   42POPC   H4X 5590   4.618   6.566   5.230  1.2185  2.0313  0.8032
   42POPC   H4Y 5591   4.657   6.393   5.207 -0.1218 -0.1589  0.1807
   42POPC   C35 5592   4.829   6.516   5.229  0.0508  0.2183  0.3114
   42POPC   H5X 5593   4.893   6.454   5.295 -2.1083  0.5732  2.8663
   42POPC   H5Y 5594   4.852   6.622   5.256  1.2329  0.3012 -0.9737
   42POPC   C36 5595   4.861   6.485   5.083 -0.4387  0.0459  0.2409
   42POPC   H6X 5596   4.829   6.386   5.046 -0.8028  0.3795 -0.3554
   42POPC   H6Y 5597   4.970   6.493   5.064 -0.4815 -1.6992 -0.7864
   42POPC   C37 5598   4.779   6.575   4.989  0.3356  0.4895 -0.0158
   42POPC   H7X 5599   4.793   6.683   5.007 -1.6301  0.6892  0.4230
   42POPC   H7Y 5600   4.672   6.557   5.011  0.7490  0.4751  2.1347
   42POPC   C38 5601   4.814   6.535   4.845  0.1007  0.1302  0.0259
   42POPC   H8X 5602   4.762   6.441   4.818 -1.5057  1.1606 -0.5288
   42POPC   H8Y 5603   4.924   6.519   4.843  0.3707  1.1777  3.1279
   42POPC   C39 5604   4.774   6.650   4.753 -0.0006  0.2336  0.1977
   42POPC   H9X 5605   4.837   6.732   4.792  1.6003 -1.3287  0.9467
   42POPC   H9Y 5606   4.668   6.683   4.762  0.8345  3.5841 -1.3888
   42POPC  C310 5607   4.800   6.624   4.604 -0.3396 -0.2422  0.2213
   42POPC  H10X 5608   4.747   6.529   4.579 -0.0922 -0.3228  0.0115
   42POPC  H10Y 5609   4.907   6.609   4.579 -1.0712 -0.2021 -3.0754
   42POPC  C311 5610   4.741   6.733   4.515 -0.4371 -0.3957  0.1000
   42POPC  H11X 5611   4.781   6.821   4.568 -0.4188 -0.2895 -0.0912
   42POPC  H11Y 5612   4.632   6.741   4.536 -0.2861  1.5893  0.2234
   42POPC  C312 5613   4.779   6.734   4.367 -0.0398 -0.0518  0.2044
   42POPC  H12X 5614   4.729   6.644   4.324  1.1223  0.2283 -1.8305
   42POPC  H12Y 5615   4.889   6.720   4.359  0.1602  1.3706  0.3603
   42POPC  C313 5616   4.738   6.857   4.285 -0.2630 -0.2847 -0.0364
   42POPC  H13X 5617   4.780   6.827   4.187  0.3359 -1.6902  0.6344
   42POPC  H13Y 5618   4.795   6.945   4.323 -1.8534  0.0657  1.6344
   42POPC  C314 5619   4.589   6.891   4.281 -0.3837 -0.6830  0.8416
   42POPC  H14X 5620   4.526   6.804   4.309 -2.8562 -0.4226 -3.4638
   42POPC  H14Y 5621   4.563   6.914   4.175  1.3595 -1.8167  0.1462
   42POPC  C315 5622   4.566   7.024   4.353 -0.1770 -0.1173 -0.1205
   42POPC  H15X 5623   4.605   7.107   4.291 -0.5723 -0.6303 -1.0722
   42POPC  H15Y 5624   4.616   7.008   4.451 -0.6190  1.5157  0.3858
   42POPC  C316 5625   4.424   7.063   4.394  0.0750  0.5504  0.1234
   42POPC  H16X 5626   4.394   6.989   4.471  0.0222 -1.1387 -1.4924
   42POPC  H16Y 5627   4.354   7.045   4.308  2.8165  0.7089 -2.2089
   42POPC  H16Z 5628   4.410   7.165   4.434 -1.2926  0.0962  0.8398
   43POPC     N 5629   3.045   4.538   6.218 -0.4918 -0.1840  0.2253
   43POPC   C12 5630   3.042   4.650   6.116 -0.0017 -0.4038 -0.0343
   43POPC  H12A 5634   3.104   4.624   6.031 -1.6334 -1.2090 -1.0021
   43POPC  H12B 5635   3.083   4.741   6.157 -2.5106  1.1323 -0.8832
   43POPC   C13 5631   2.987   4.405   6.175  0.4947 -0.4391 -0.3428
   43POPC  H13A 5636   3.052   4.364   6.100  0.2060  0.5363 -1.1380
   43POPC  H13B 5637   2.989   4.338   6.259  2.7002  1.3552  1.1213
   43POPC  H13C 5638   2.894   4.424   6.125  0.0167  1.3004  1.1469
   43POPC   C14 5632   3.187   4.518   6.267 -0.6192 -0.3103  0.5406
   43POPC  H14A 5639   3.242   4.468   6.189  0.2267  0.2249  0.7884
   43POPC  H14B 5640   3.231   4.613   6.293 -1.2041  0.5893 -1.6473
   43POPC  H14C 5641   3.196   4.461   6.358  0.7742 -0.9507  0.0048
   43POPC   C15 5633   2.970   4.591   6.337 -0.2447 -0.0927  0.3406
   43POPC  H15A 5642   2.865   4.606   6.317 -0.0786  2.0327  0.9485
   43POPC  H15B 5643   3.000   4.693   6.354  0.6848 -0.3297  0.1331
   43POPC  H15C 5644   2.995   4.535   6.427  2.2340 -0.6727 -0.6773
   43POPC   C11 5645   2.911   4.707   6.061  0.1128 -0.1185 -0.0131
   43POPC  H11A 5646   2.929   4.783   5.982  1.6888  0.5948  0.9949
   43POPC  H11B 5647   2.862   4.769   6.139 -0.4385 -0.5662 -0.0054
   43POPC     P 5648   2.688   4.637   5.959  0.1413  0.2086 -0.2008
   43POPC   O13 5649   2.635   4.747   6.042  0.7404  0.4541 -0.1394
   43POPC   O14 5650   2.598   4.520   5.954 -0.1300  0.4049  0.1459
   43POPC   O12 5651   2.831   4.596   6.019  0.1158 -0.0147 -0.2890
   43POPC   O11 5652   2.722   4.694   5.813  0.3030 -0.1087 -0.2883
   43POPC    C1 5653   2.729   4.607   5.700 -0.2033 -0.5723  0.0363
   43POPC    HA 5654   2.707   4.677   5.616 -0.4008  1.8289  2.0233
   43POPC    HB 5655   2.657   4.523   5.711 -2.4623  1.2396 -0.2960
   43POPC    C2 5656   2.872   4.553   5.691  0.0560  0.0675  0.2741
   43POPC    HS 5657   2.897   4.507   5.789 -3.0356 -2.2663  0.0529
   43POPC   O21 5658   2.967   4.658   5.668  0.0939  0.1637  0.8514
   43POPC   C21 5659   3.095   4.637   5.699  0.3002 -0.0741 -0.1198
   43POPC   O22 5660   3.137   4.544   5.765  0.0774 -0.1950 -0.1485
   43POPC   C22 5661   3.176   4.760   5.660  0.4246  0.0021  0.3718
   43POPC   H2R 5662   3.173   4.827   5.749  0.9703  1.7832 -0.9131
   43POPC   H2S 5663   3.121   4.810   5.577 -1.5013 -0.9763  1.0142
   43POPC    C3 5664   2.892   4.441   5.587  0.2880  0.0991  0.2842
   43POPC    HX 5665   2.838   4.353   5.628  0.7097 -0.2956  0.0038
   43POPC    HY 5666   2.999   4.412   5.591  0.9282  2.5638  2.5243
   43POPC   O31 5667   2.852   4.470   5.452  0.5430 -0.8006  0.0119
   43POPC   C31 5668   2.952   4.505   5.371  0.4656 -0.0679  0.2309
   43POPC   O32 5669   3.070   4.515   5.399  0.5542  0.3945 -0.2958
   43POPC   C32 5670   2.883   4.537   5.239  0.0908  0.6807  0.6008
   43POPC   H2X 5671   2.824   4.630   5.256 -0.5404  0.9200 -2.5653
   43POPC   H2Y 5672   2.806   4.463   5.208 -0.1064  0.2558  2.0627
   43POPC   C23 5673   3.319   4.722   5.623  0.3259  0.0216 -0.0387
   43POPC   H3R 5674   3.328   4.613   5.606 -2.5633 -0.2563  0.0749
   43POPC   H3S 5675   3.382   4.745   5.712  0.8121  1.0137 -0.6256
   43POPC   C24 5676   3.364   4.796   5.497  0.1984 -0.1645 -0.1935
   43POPC   H4R 5677   3.474   4.805   5.517  0.7038 -4.1019 -0.8581
   43POPC   H4S 5678   3.316   4.894   5.516  0.4167 -0.1235  0.1521
   43POPC   C25 5679   3.327   4.733   5.363 -0.1466 -0.3600 -0.0063
   43POPC   H5R 5680   3.218   4.718   5.377 -0.4022  1.4441  0.0590
   43POPC   H5S 5681   3.364   4.628   5.357 -0.9310 -0.6987  0.8688
   43POPC   C26 5682   3.352   4.812   5.235  0.2064 -0.9735 -0.3219
   43POPC   H6R 5683   3.295   4.771   5.149 -1.1078  0.7479 -0.2969
   43POPC   H6S 5684   3.459   4.791   5.211  1.0468  0.5498  1.9353
   43POPC   C27 5685   3.352   4.965   5.247 -0.6874 -0.9269 -0.9070
   43POPC   H7R 5686   3.408   4.984   5.341 -0.4975 -0.6015 -1.0884
   43POPC   H7S 5687   3.249   5.002   5.268  0.6703  3.2364 -1.2311
   43POPC   C28 5688   3.412   5.036   5.126  0.1783 -0.1173 -0.0081
   43POPC   H8R 5689   3.511   4.994   5.099 -0.4885  0.0803 -2.8803
   43POPC   H8S 5690   3.430   5.141   5.160  1.5253 -0.2427 -0.3019
   43POPC   C29 5691   3.315   5.039   5.012 -0.0055  0.2781  0.1575
   43POPC   H91 5692   3.235   5.113   5.031  0.9029  1.5648 -0.8965
   43POPC  C210 5693   3.325   4.970   4.897  0.0477  0.4671  0.0478
   43POPC  H101 5694   3.249   4.979   4.819  2.0864  5.0049 -1.5777
   43POPC  C211 5695   3.433   4.873   4.858 -0.6937 -0.4504  0.2666
   43POPC  H11R 5696   3.440   4.804   4.945  1.3559 -3.1765 -1.9907
   43POPC  H11S 5697   3.524   4.929   4.828  0.2545 -2.3541 -0.4709
   43POPC  C212 5698   3.383   4.799   4.734 -0.0976 -0.4351  0.0198
   43POPC  H12R 5699   3.279   4.768   4.758 -0.2904  1.8076  2.2859
   43POPC  H12S 5700   3.449   4.710   4.722  0.3212 -0.1774  0.3821
   43POPC  C213 5701   3.397   4.880   4.604  0.3119 -0.2185  0.1962
   43POPC  H13R 5702   3.503   4.913   4.601  0.3863 -0.2162  1.9197
   43POPC  H13S 5703   3.338   4.974   4.605 -2.6107 -1.9864  0.2934
   43POPC  C214 5704   3.371   4.797   4.478  0.2456  0.0834  0.0118
   43POPC  H14R 5705   3.412   4.694   4.483 -3.4296 -1.3865  1.2422
   43POPC  H14S 5706   3.262   4.796   4.458  0.2262 -1.0652  0.1335
   43POPC  C215 5707   3.432   4.870   4.359 -0.5588  0.3192 -0.2617
   43POPC  H15R 5708   3.541   4.891   4.371 -0.2773  0.3608 -2.6111
   43POPC  H15S 5709   3.383   4.968   4.341  1.7842  1.1880 -2.4260
   43POPC  C216 5710   3.420   4.781   4.235 -0.2550 -0.1442  0.0418
   43POPC  H16R 5711   3.317   4.739   4.236  0.5183 -2.1096 -0.1934
   43POPC  H16S 5712   3.490   4.695   4.242  1.3929  1.3097  2.1030
   43POPC  C217 5713   3.446   4.851   4.102  0.4670 -0.0371  0.2365
   43POPC  H17R 5714   3.461   4.959   4.121 -1.4795  0.4641 -0.9151
   43POPC  H17S 5715   3.365   4.826   4.030  0.2498 -4.3158  1.8469
   43POPC  C218 5716   3.569   4.795   4.029  0.0739 -0.7305  0.0991
   43POPC  H18R 5717   3.539   4.691   4.007 -0.5239 -0.3729 -0.8050
   43POPC  H18S 5718   3.660   4.804   4.092  0.8678  1.2560 -1.2804
   43POPC  H18T 5719   3.593   4.847   3.934  0.7645 -1.4367 -0.1087
   43POPC   C33 5720   2.978   4.569   5.123 -0.0455  0.2639  0.3710
   43POPC   H3X 5721   3.051   4.486   5.107  0.4565  0.8494 -0.3944
   43POPC   H3Y 5722   3.033   4.662   5.148  1.9993 -0.9968  0.6579
   43POPC   C34 5723   2.894   4.603   5.000  0.3842  0.2533  0.0767
   43POPC   H4X 5724   2.819   4.681   5.022 -0.0867 -0.1490 -0.0966
   43POPC   H4Y 5725   2.837   4.513   4.968 -1.4241  0.7810  1.7398
   43POPC   C35 5726   2.978   4.643   4.878  0.2226  0.3373 -0.0073
   43POPC   H5X 5727   3.053   4.564   4.853  0.6440  0.1744  1.6766
   43POPC   H5Y 5728   3.032   4.737   4.900  2.3754 -0.5352 -1.3927
   43POPC   C36 5729   2.897   4.644   4.748  0.2284  0.0269 -0.0161
   43POPC   H6X 5730   2.829   4.732   4.738  0.4670  0.2405  0.2085
   43POPC   H6Y 5731   2.829   4.557   4.745 -0.1164  0.3246 -1.2500
   43POPC   C37 5732   2.992   4.623   4.630  0.7129 -0.1167  0.3988
   43POPC   H7X 5733   3.067   4.543   4.648  1.0869  0.3443  0.8979
   43POPC   H7Y 5734   3.043   4.719   4.611  1.0516 -0.3415  0.1724
   43POPC   C38 5735   2.918   4.585   4.502  0.3147  0.7335  0.3716
   43POPC   H8X 5736   2.849   4.670   4.486 -0.6299 -0.4288 -1.9479
   43POPC   H8Y 5737   2.848   4.500   4.521  0.1029  1.0101  0.8251
   43POPC   C39 5738   2.998   4.573   4.372  0.1923  0.0576  0.3547
   43POPC   H9X 5739   3.045   4.671   4.349 -3.9037  2.1897  0.5065
   43POPC   H9Y 5740   2.931   4.563   4.283  1.9479  3.9651 -1.5371
   43POPC  C310 5741   3.107   4.466   4.373 -0.0399 -0.1922 -0.5653
   43POPC  H10X 5742   3.054   4.371   4.397 -1.2774  0.7725  0.5643
   43POPC  H10Y 5743   3.178   4.488   4.455 -0.3994  1.5478 -0.7135
   43POPC  C311 5744   3.179   4.454   4.238  0.5057  0.0421 -0.2973
   43POPC  H11X 5745   3.166   4.552   4.189 -0.9229  0.3801  0.7080
   43POPC  H11Y 5746   3.131   4.372   4.179 -0.9437 -2.1987  3.7528
   43POPC  C312 5747   3.321   4.401   4.259  0.4249 -0.0394  0.0536
   43POPC  H12X 5748   3.322   4.338   4.351 -0.2210  0.1316  0.1791
   43POPC  H12Y 5749   3.389   4.488   4.272 -0.8160  2.1618 -6.2709
   43POPC  C313 5750   3.371   4.342   4.127 -0.1572 -0.0010 -0.1870
   43POPC  H13X 5751   3.292   4.279   4.081 -1.4463  1.8762 -0.6000
   43POPC  H13Y 5752   3.464   4.284   4.146  1.3812  2.8589  1.3576
   43POPC  C314 5753   3.404   4.447   4.020  0.1347  0.1524  0.0543
   43POPC  H14X 5754   3.498   4.502   4.046  0.5582  0.8628 -2.8754
   43POPC  H14Y 5755   3.311   4.508   4.016 -0.6203 -0.6414  3.3351
   43POPC  C315 5756   3.422   4.378   3.885  0.2195 -0.0076  0.1475
   43POPC  H15X 5757   3.341   4.303   3.876 -0.0471  0.2948  0.0329
   43POPC  H15Y 5758   3.513   4.314   3.887 -0.4367 -0.9470  0.8093
   43POPC  C316 5759   3.428   4.465   3.759  0.5555  0.1569  0.2763
   43POPC  H16X 5760   3.402   4.403   3.671 -0.2160 -2.4715  2.2728
   43POPC  H16Y 5761   3.531   4.505   3.746 -0.1510  1.8585 -0.1419
   43POPC  H16Z 5762   3.352   4.544   3.771 -1.2365 -1.3971 -0.6527
   44POPC     N 5763   5.163   7.138   6.462  0.1648  0.2972  0.0873
   44POPC   C12 5764   5.097   7.234   6.366 -0.3274  0.3264  0.4549
   44POPC  H12A 5768   5.049   7.309   6.429 -0.8946  2.1757 -2.0846
   44POPC  H12B 5769   5.018   7.182   6.313  0.1502  0.3758 -0.2975
   44POPC   C13 5765   5.210   7.015   6.390 -0.3897 -0.0511  0.3167
   44POPC  H13A 5770   5.131   6.947   6.362 -0.8837 -0.3562  2.4238
   44POPC  H13B 5771   5.251   7.053   6.297 -1.7362  0.1646 -0.1977
   44POPC  H13C 5772   5.281   6.961   6.451 -0.5487  2.1037  2.4526
   44POPC   C14 5766   5.288   7.204   6.514 -0.0441  0.1158  0.8238
   44POPC  H14A 5773   5.260   7.300   6.557  0.7787  0.4416  0.6414
   44POPC  H14B 5774   5.336   7.133   6.580 -0.9610  0.0185  1.3849
   44POPC  H14C 5775   5.356   7.220   6.432 -0.6385 -2.8358 -0.3171
   44POPC   C15 5767   5.065   7.095   6.569 -0.0754  0.0851 -0.2167
   44POPC  H15A 5776   4.989   7.034   6.523  0.9788 -1.2416 -0.2498
   44POPC  H15B 5777   5.020   7.187   6.603  2.1413  2.1417 -2.5396
   44POPC  H15C 5778   5.105   7.043   6.655 -2.2754  0.4541  1.0419
   44POPC   C11 5779   5.177   7.308   6.258 -0.2258  0.0969  0.3745
   44POPC  H11A 5780   5.228   7.392   6.310  0.0378  0.1389  0.0424
   44POPC  H11B 5781   5.113   7.351   6.178  0.8322 -1.6843 -1.4633
   44POPC     P 5782   5.331   7.290   6.061  0.4187 -0.4091  0.3153
   44POPC   O13 5783   5.470   7.250   6.030  0.6574  0.1098  0.7029
   44POPC   O14 5784   5.327   7.438   6.060 -0.2717 -0.4393 -1.1599
   44POPC   O12 5785   5.282   7.230   6.202 -0.5925 -0.1764  0.0661
   44POPC   O11 5786   5.238   7.222   5.950  0.2472 -0.3172  0.4028
   44POPC    C1 5787   5.232   7.079   5.954  0.0688 -0.3205  0.0525
   44POPC    HA 5788   5.140   7.052   5.898  2.3284 -4.8465 -1.7403
   44POPC    HB 5789   5.228   7.042   6.059  3.3792 -1.1830 -0.0647
   44POPC    C2 5790   5.355   7.020   5.885  0.3762  0.1442  0.1951
   44POPC    HS 5791   5.439   7.012   5.958  0.3908 -1.0801  0.0691
   44POPC   O21 5792   5.381   7.105   5.772 -0.4123 -0.0335 -0.1231
   44POPC   C21 5793   5.510   7.103   5.738 -0.4756 -0.7366 -0.3319
   44POPC   O22 5794   5.598   7.047   5.801 -0.1551 -0.1394 -0.2546
   44POPC   C22 5795   5.531   7.189   5.615 -0.2785  0.1296  0.3058
   44POPC   H2R 5796   5.536   7.295   5.650  1.4771 -0.3741  1.6329
   44POPC   H2S 5797   5.447   7.164   5.547  0.9361 -0.1812 -1.1168
   44POPC    C3 5798   5.337   6.872   5.844  0.7785  0.1123  0.1250
   44POPC    HX 5799   5.301   6.826   5.938  1.1448  2.1073  1.2731
   44POPC    HY 5800   5.431   6.823   5.812 -1.4936 -3.6431 -1.0985
   44POPC   O31 5801   5.251   6.850   5.732  0.5810  0.1465  0.2706
   44POPC   C31 5802   5.204   6.725   5.730  0.1401  0.3032  0.6890
   44POPC   O32 5803   5.233   6.630   5.800  0.0087 -0.2629 -0.0239
   44POPC   C32 5804   5.099   6.721   5.620  0.7869 -0.4494  0.0921
   44POPC   H2X 5805   5.013   6.788   5.643  0.3274 -0.2465 -2.1075
   44POPC   H2Y 5806   5.064   6.616   5.609  0.1419 -0.3620  1.1908
   44POPC   C23 5807   5.674   7.159   5.570 -0.7251 -0.2167 -0.9115
   44POPC   H3R 5808   5.685   7.053   5.539  1.5852  0.1654 -1.4620
   44POPC   H3S 5809   5.741   7.185   5.655  0.8137 -1.3169 -1.7529
   44POPC   C24 5810   5.719   7.236   5.446  0.2594  0.3921 -0.1877
   44POPC   H4R 5811   5.702   7.345   5.451 -0.9068  0.2437 -0.6203
   44POPC   H4S 5812   5.658   7.196   5.361 -1.7046  0.7189  1.0487
   44POPC   C25 5813   5.867   7.220   5.408  0.2510 -0.3218  0.0783
   44POPC   H5R 5814   5.934   7.227   5.496 -0.5705  2.7873  0.4919
   44POPC   H5S 5815   5.894   7.302   5.339  1.5760  0.0677  1.0466
   44POPC   C26 5816   5.898   7.088   5.336 -1.1001 -0.4144 -0.3487
   44POPC   H6R 5817   5.863   7.003   5.398  1.9785 -1.0567  0.5596
   44POPC   H6S 5818   6.009   7.092   5.331 -0.8619  1.0582  3.8976
   44POPC   C27 5819   5.850   7.086   5.190 -0.5984  0.2067 -0.5274
   44POPC   H7R 5820   5.809   7.185   5.163 -1.2908 -0.1220 -0.6973
   44POPC   H7S 5821   5.766   7.013   5.190 -1.9220  1.6412  2.0615
   44POPC   C28 5822   5.962   7.044   5.095 -0.4746 -0.0877 -0.2571
   44POPC   H8R 5823   6.009   6.953   5.137  1.0362  1.0082  0.4879
   44POPC   H8S 5824   6.034   7.129   5.094 -2.1593  1.3988  0.8643
   44POPC   C29 5825   5.914   7.021   4.954 -0.2932  0.1102 -0.3507
   44POPC   H91 5826   5.825   7.082   4.930 -0.2099  0.9783  1.4443
   44POPC  C210 5827   5.948   6.924   4.869  0.3876  0.5824 -0.6252
   44POPC  H101 5828   5.896   6.923   4.772 -3.5113  1.0333  1.3370
   44POPC  C211 5829   6.066   6.833   4.887  0.4800  0.8216 -0.0121
   44POPC  H11R 5830   6.042   6.728   4.859  1.9181 -0.0597  1.9086
   44POPC  H11S 5831   6.101   6.829   4.992 -0.5217 -0.3797  0.2909
   44POPC  C212 5832   6.174   6.863   4.782  0.4633 -0.3767 -0.3823
   44POPC  H12R 5833   6.190   6.972   4.770  0.3780 -0.6137 -2.9600
   44POPC  H12S 5834   6.130   6.829   4.686 -3.2971 -0.0179  1.1249
   44POPC  C213 5835   6.308   6.794   4.809  0.3460 -0.3783  0.2176
   44POPC  H13R 5836   6.371   6.802   4.718  1.4904  0.7593  1.0962
   44POPC  H13S 5837   6.296   6.686   4.833  0.0006 -0.2737  0.5077
   44POPC  C214 5838   6.385   6.867   4.918 -0.3002  0.6305  0.0060
   44POPC  H14R 5839   6.320   6.855   5.007  0.2270  0.0989  0.3200
   44POPC  H14S 5840   6.385   6.975   4.889 -1.1334  0.7992  0.6131
   44POPC  C215 5841   6.527   6.823   4.955 -0.5757  0.0326  0.3483
   44POPC  H15R 5842   6.586   6.837   4.862  0.9240  1.4412  1.4766
   44POPC  H15S 5843   6.515   6.714   4.970  0.5709 -0.2739 -0.8903
   44POPC  C216 5844   6.584   6.918   5.060  0.3927 -0.1377 -0.0196
   44POPC  H16R 5845   6.507   6.940   5.137  1.2307  0.6574  0.6139
   44POPC  H16S 5846   6.603   7.015   5.009 -0.6161 -0.9178 -1.8984
   44POPC  C217 5847   6.710   6.876   5.136  0.4929 -0.2826 -0.2676
   44POPC  H17R 5848   6.800   6.867   5.071  0.6978 -0.3594  0.0242
   44POPC  H17S 5849   6.682   6.779   5.183 -3.0530  0.7975 -0.0339
   44POPC  C218 5850   6.745   6.959   5.260 -0.5895 -0.4657  0.1633
   44POPC  H18R 5851   6.797   7.054   5.236  0.1532 -0.4037  1.9267
   44POPC  H18S 5852   6.808   6.897   5.327  1.2692  0.4589 -0.7058
   44POPC  H18T 5853   6.656   6.990   5.320 -1.6171 -0.0921 -1.5046
   44POPC   C33 5854   5.159   6.777   5.492  0.2066 -0.1936 -0.0712
   44POPC   H3X 5855   5.251   6.715   5.484  0.2606 -0.0338 -0.7432
   44POPC   H3Y 5856   5.195   6.882   5.495 -0.5035  0.0145  1.2810
   44POPC   C34 5857   5.074   6.748   5.368 -0.0172 -0.0854  0.0571
   44POPC   H4X 5858   4.979   6.799   5.395  0.5711 -0.1452  2.3768
   44POPC   H4Y 5859   5.065   6.637   5.359 -1.2471 -0.0014  0.1889
   44POPC   C35 5860   5.150   6.803   5.247 -0.1987  0.6707  0.2853
   44POPC   H5X 5861   5.229   6.731   5.218  0.1349  1.9262 -2.0334
   44POPC   H5Y 5862   5.195   6.900   5.278 -0.5206  0.4306  1.5659
   44POPC   C36 5863   5.066   6.828   5.122  0.1471 -0.3908 -0.1630
   44POPC   H6X 5864   4.988   6.902   5.147 -1.2482 -1.5065 -1.1108
   44POPC   H6Y 5865   5.015   6.730   5.108  1.5792 -1.3585  1.1252
   44POPC   C37 5866   5.148   6.882   5.004 -0.0383  0.1407 -0.0470
   44POPC   H7X 5867   5.250   6.840   5.003 -0.2845 -0.4395 -0.6431
   44POPC   H7Y 5868   5.153   6.991   5.029  1.4945 -0.1391  0.9046
   44POPC   C38 5869   5.086   6.856   4.867  0.0024 -0.6041  0.0732
   44POPC   H8X 5870   4.978   6.883   4.875 -0.1304 -1.0240 -0.3057
   44POPC   H8Y 5871   5.072   6.747   4.855  2.1268 -0.8960  0.2484
   44POPC   C39 5872   5.164   6.931   4.759 -0.5108  0.1960  0.2515
   44POPC   H9X 5873   5.252   6.872   4.726  0.7385  2.3136 -0.3329
   44POPC   H9Y 5874   5.200   7.029   4.798  0.6187 -0.6592  1.3801
   44POPC  C310 5875   5.073   6.944   4.637 -0.3432  0.4587  0.1531
   44POPC  H10X 5876   4.974   6.988   4.662 -0.3256  0.6082 -0.0339
   44POPC  H10Y 5877   5.053   6.838   4.607  2.3838  0.3690 -1.6147
   44POPC  C311 5878   5.129   7.015   4.513 -0.2084  0.0814 -0.0036
   44POPC  H11X 5879   5.142   7.124   4.529 -2.1779  0.1490  1.3479
   44POPC  H11Y 5880   5.064   6.999   4.425  0.6275 -2.0192 -0.2860
   44POPC  C312 5881   5.271   6.980   4.466 -0.1548 -0.3461  0.4597
   44POPC  H12X 5882   5.344   6.992   4.549  3.0612 -1.7573 -2.0810
   44POPC  H12Y 5883   5.304   7.057   4.393  0.9559 -1.6146 -0.3742
   44POPC  C313 5884   5.293   6.850   4.388 -0.2339 -0.1514  0.1096
   44POPC  H13X 5885   5.203   6.830   4.327  1.0571 -1.4182 -1.3959
   44POPC  H13Y 5886   5.297   6.763   4.457 -0.6832  0.5145  0.9881
   44POPC  C314 5887   5.416   6.852   4.297 -0.3082 -0.0884  0.0092
   44POPC  H14X 5888   5.506   6.878   4.357  0.1908  0.6457 -1.0398
   44POPC  H14Y 5889   5.403   6.920   4.210  0.3917 -1.0091 -0.8168
   44POPC  C315 5890   5.446   6.718   4.231 -0.1039 -0.1026  0.1301
   44POPC  H15X 5891   5.431   6.648   4.316  0.5988  0.9423  1.1148
   44POPC  H15Y 5892   5.551   6.716   4.196 -0.4150  1.9399 -0.9775
   44POPC  C316 5893   5.349   6.672   4.122 -0.0353 -0.3258  0.1656
   44POPC  H16X 5894   5.369   6.562   4.115  0.0534 -0.3689  1.0355
   44POPC  H16Y 5895   5.360   6.726   4.026 -0.3065  0.1179  0.3894
   44POPC  H16Z 5896   5.245   6.695   4.152  0.4171  0.5895  1.0344
   45POPC     N 5897   3.751   1.748   5.882  0.0096 -0.5790  0.4634
   45POPC   C12 5898   3.623   1.807   5.826  0.2306 -0.3635  0.1809
   45POPC  H12A 5902   3.621   1.913   5.844  0.6217 -0.4923  1.0037
   45POPC  H12B 5903   3.540   1.753   5.869 -1.3291  1.0378 -1.0430
   45POPC   C13 5899   3.724   1.600   5.886  0.1162 -0.6084  0.1123
   45POPC  H13A 5904   3.812   1.539   5.897  1.0216  0.4648 -1.0696
   45POPC  H13B 5905   3.658   1.587   5.971 -1.4074 -2.1667 -1.2526
   45POPC  H13C 5906   3.667   1.574   5.797 -0.7817 -0.4222  0.6219
   45POPC   C14 5900   3.866   1.774   5.787 -0.1304  0.1691  0.4929
   45POPC  H14A 5907   3.953   1.720   5.821  0.3755  0.4568 -0.3175
   45POPC  H14B 5908   3.840   1.751   5.685  0.8030 -1.9409  0.7132
   45POPC  H14C 5909   3.892   1.879   5.784 -0.6009  0.2604 -1.1044
   45POPC   C15 5901   3.789   1.801   6.018 -0.0554  0.5733  0.0412
   45POPC  H15A 5910   3.804   1.907   6.032 -0.6805  0.3849  2.2126
   45POPC  H15B 5911   3.868   1.740   6.059 -1.5217 -1.3231  0.1282
   45POPC  H15C 5912   3.714   1.780   6.092  1.5045  1.0539  1.8008
   45POPC   C11 5913   3.601   1.796   5.675  0.0954 -0.1833  0.1869
   45POPC  H11A 5914   3.671   1.862   5.621  1.5618 -0.8525  1.2330
   45POPC  H11B 5915   3.500   1.838   5.656  0.5688  0.2694 -1.3802
   45POPC     P 5916   3.491   1.576   5.593 -0.1737 -0.0823  0.0985
   45POPC   O13 5917   3.381   1.602   5.689 -0.4132  0.5841 -0.3613
   45POPC   O14 5918   3.533   1.434   5.583 -0.1151 -0.0872  0.3917
   45POPC   O12 5919   3.621   1.665   5.622 -0.0973 -0.2520  0.2800
   45POPC   O11 5920   3.449   1.631   5.449  0.1747  0.0173  0.0340
   45POPC    C1 5921   3.336   1.570   5.388  0.0286  0.8595 -0.5511
   45POPC    HA 5922   3.294   1.629   5.304 -1.3892 -0.5414 -0.8640
   45POPC    HB 5923   3.249   1.575   5.457 -0.0842  1.4566 -0.7319
   45POPC    C2 5924   3.366   1.433   5.324 -0.0386  0.4188  0.3467
   45POPC    HS 5925   3.397   1.352   5.394  0.7791  1.8447  1.6678
   45POPC   O21 5926   3.468   1.464   5.228 -0.2854  0.0584 -0.0308
   45POPC   C21 5927   3.563   1.372   5.213 -0.3748 -0.0325 -0.0382
   45POPC   O22 5928   3.585   1.273   5.281  0.1496  0.4621  0.5199
   45POPC   C22 5929   3.632   1.409   5.082 -0.8417 -0.1023 -0.3062
   45POPC   H2R 5930   3.716   1.478   5.105 -2.2892  1.4611  0.4175
   45POPC   H2S 5931   3.560   1.456   5.013 -0.7120  1.6635  0.7277
   45POPC    C3 5932   3.242   1.376   5.253  0.1763  0.0737  0.2433
   45POPC    HX 5933   3.211   1.457   5.184 -2.4842 -0.9660  0.1570
   45POPC    HY 5934   3.164   1.361   5.332 -0.7753  1.0830 -0.4851
   45POPC   O31 5935   3.286   1.264   5.177 -0.0298 -0.3263  0.7160
   45POPC   C31 5936   3.263   1.143   5.229  0.3300 -0.4860  0.5006
   45POPC   O32 5937   3.211   1.120   5.336  0.4322 -0.2978  0.5900
   45POPC   C32 5938   3.315   1.037   5.132 -0.1985 -0.1577 -0.1449
   45POPC   H2X 5939   3.423   1.030   5.157 -0.7203 -1.0689  1.9755
   45POPC   H2Y 5940   3.308   1.062   5.024  0.4663  0.6265 -0.0173
   45POPC   C23 5941   3.684   1.278   5.022  0.2717  0.0338  0.3421
   45POPC   H3R 5942   3.615   1.193   5.044  0.6814 -0.2622  0.4902
   45POPC   H3S 5943   3.774   1.247   5.080  1.4872 -0.1698 -1.6370
   45POPC   C24 5944   3.714   1.302   4.874 -0.3146  0.4364  0.2874
   45POPC   H4R 5945   3.793   1.380   4.862  0.6607 -0.7114 -0.8231
   45POPC   H4S 5946   3.623   1.346   4.828 -0.9836  0.3007  1.4572
   45POPC   C25 5947   3.736   1.166   4.809 -0.3578  0.6532 -0.1805
   45POPC   H5R 5948   3.638   1.118   4.830 -0.2408 -0.3965 -1.9118
   45POPC   H5S 5949   3.809   1.110   4.870 -1.0928 -0.5914 -0.4141
   45POPC   C26 5950   3.791   1.180   4.667 -0.1553  0.1231 -0.1562
   45POPC   H6R 5951   3.896   1.216   4.662  0.6830 -1.9121  1.9971
   45POPC   H6S 5952   3.741   1.258   4.605 -0.0231  0.3909  0.0741
   45POPC   C27 5953   3.827   1.051   4.592 -0.5534  0.1833 -0.4566
   45POPC   H7R 5954   3.738   0.986   4.590  0.4116 -1.1567 -0.3434
   45POPC   H7S 5955   3.905   0.992   4.645 -1.8958 -1.6033 -0.4341
   45POPC   C28 5956   3.861   1.081   4.446 -0.0945 -0.0583 -0.4023
   45POPC   H8R 5957   3.959   1.134   4.454 -0.1421 -0.0139 -0.0941
   45POPC   H8S 5958   3.787   1.153   4.404  1.0294  0.8600 -0.8291
   45POPC   C29 5959   3.872   0.952   4.370  0.6761 -0.1949 -0.0584
   45POPC   H91 5960   3.838   0.864   4.426  0.6023 -0.4821 -0.5474
   45POPC  C210 5961   3.908   0.934   4.242  0.0333  0.2950 -0.3124
   45POPC  H101 5962   3.912   0.835   4.194  0.6514 -0.8892  2.1067
   45POPC  C211 5963   3.939   1.050   4.153 -0.4187  0.3120 -0.4496
   45POPC  H11R 5964   4.033   1.103   4.180 -0.7088 -0.4333  2.1844
   45POPC  H11S 5965   3.858   1.124   4.171 -0.3293 -0.2661  2.6054
   45POPC  C212 5966   3.944   1.009   4.006 -0.0299  0.2132 -0.4105
   45POPC  H12R 5967   3.955   1.102   3.945  0.1659  0.3724 -0.1319
   45POPC  H12S 5968   3.844   0.967   3.981  1.0016 -1.8247 -1.2769
   45POPC  C213 5969   4.053   0.907   3.974 -0.3462 -0.4087  0.4888
   45POPC  H13R 5970   4.052   0.829   4.053  0.2052 -0.3364  0.5694
   45POPC  H13S 5971   4.147   0.967   3.977  0.9659 -2.4027  0.4076
   45POPC  C214 5972   4.046   0.846   3.834  0.2695  0.2938  0.1478
   45POPC  H14R 5973   3.959   0.777   3.834  2.1213 -2.1616 -1.6468
   45POPC  H14S 5974   4.135   0.779   3.826 -1.2657 -1.7730 -0.2260
   45POPC  C215 5975   4.028   0.938   3.713  0.1391  0.1224  0.0351
   45POPC  H15R 5976   4.093   1.028   3.721  0.1815  0.0372  0.6535
   45POPC  H15S 5977   3.926   0.981   3.705  0.0980  0.0485  0.1578
   45POPC  C216 5978   4.056   0.873   3.578  0.2288  0.4218 -0.0903
   45POPC  H16R 5979   4.032   0.766   3.594 -0.2792  0.6188  0.4664
   45POPC  H16S 5980   4.163   0.886   3.550  0.1637  1.8138  0.2547
   45POPC  C217 5981   3.971   0.926   3.462  0.2090  0.0462 -0.2495
   45POPC  H17R 5982   3.863   0.905   3.476  0.3974 -1.4642 -1.0052
   45POPC  H17S 5983   3.995   0.864   3.374  1.5508 -1.2503  1.0136
   45POPC  C218 5984   3.996   1.072   3.425  0.2425  0.4044  1.1558
   45POPC  H18R 5985   3.935   1.116   3.343 -0.2340 -0.5093  1.0152
   45POPC  H18S 5986   4.102   1.072   3.392 -0.1492 -1.0698 -0.1227
   45POPC  H18T 5987   3.989   1.139   3.514  4.2651  0.1584  1.7579
   45POPC   C33 5988   3.234   0.909   5.151  0.1696 -0.3500  0.1371
   45POPC   H3X 5989   3.128   0.932   5.127  0.3712 -0.4204 -0.8655
   45POPC   H3Y 5990   3.249   0.874   5.255  0.1384 -0.4881  0.0968
   45POPC   C34 5991   3.272   0.804   5.046  0.5845 -0.3455  0.2851
   45POPC   H4X 5992   3.383   0.795   5.036  0.5182 -1.3835  0.4269
   45POPC   H4Y 5993   3.238   0.843   4.948 -1.5514 -0.5293  0.9333
   45POPC   C35 5994   3.209   0.669   5.077  0.0520 -0.1566  0.0270
   45POPC   H5X 5995   3.104   0.693   5.106 -0.1329  1.3606 -1.8283
   45POPC   H5Y 5996   3.269   0.616   5.154  1.5438  1.3644 -0.0676
   45POPC   C36 5997   3.205   0.581   4.952 -0.8815  0.0248 -0.0746
   45POPC   H6X 5998   3.309   0.559   4.920 -0.8211  0.9100 -0.5064
   45POPC   H6Y 5999   3.162   0.650   4.876 -0.3791  1.4821  0.9374
   45POPC   C37 6000   3.115   0.460   4.977 -0.5052 -0.1433  0.4709
   45POPC   H7X 6001   3.011   0.496   4.994 -0.7383 -0.4079 -0.3875
   45POPC   H7Y 6002   3.139   0.400   5.068 -0.7999 -1.3304 -0.2216
   45POPC   C38 6003   3.104   0.374   4.851 -0.1732  0.2505  0.1725
   45POPC   H8X 6004   3.084   0.446   4.769 -0.1098 -0.1966 -0.2371
   45POPC   H8Y 6005   3.019   0.307   4.872 -0.8489  0.7702 -0.8615
   45POPC   C39 6006   3.235   0.298   4.826 -0.3618 -0.0163 -0.0019
   45POPC   H9X 6007   3.321   0.366   4.807 -0.5360  0.6410  1.5269
   45POPC   H9Y 6008   3.227   0.233   4.736 -1.0602  0.8554 -0.5883
   45POPC  C310 6009   3.285   0.226   4.951 -0.0305  0.1164 -0.0573
   45POPC  H10X 6010   3.206   0.169   5.005  0.7579  0.6593  1.7110
   45POPC  H10Y 6011   3.345   0.296   5.013 -1.7853  2.2634 -0.6894
   45POPC  C311 6012   3.387   0.121   4.908 -0.0539  0.0939 -0.0582
   45POPC  H11X 6013   3.361   0.067   4.814  1.4142  0.9300 -0.9632
   45POPC  H11Y 6014   3.377   0.052   4.995  1.0222 -4.0579 -3.0259
   45POPC  C312 6015   3.534   0.160   4.899 -0.1759  0.5735  0.0368
   45POPC  H12X 6016   3.597   0.069   4.889  1.3008  1.6133 -0.4165
   45POPC  H12Y 6017   3.560   0.220   4.989  0.6101 -0.1248  0.2909
   45POPC  C313 6018   3.582   0.246   4.782  0.4920  0.2526  0.0675
   45POPC  H13X 6019   3.692   0.261   4.781  0.9002 -2.0802  2.6383
   45POPC  H13Y 6020   3.532   0.346   4.779 -0.3654 -0.0797  2.0698
   45POPC  C314 6021   3.548   0.181   4.648 -0.3702  0.3720  0.2202
   45POPC  H14X 6022   3.438   0.190   4.642 -0.2643  1.0496 -1.1789
   45POPC  H14Y 6023   3.588   0.078   4.642  1.5520  1.1952 -2.1572
   45POPC  C315 6024   3.634   0.244   4.538  0.2133 -0.0113  0.4538
   45POPC  H15X 6025   3.675   0.343   4.568  0.5081  0.9478 -2.8478
   45POPC  H15Y 6026   3.568   0.261   4.450  1.1898 -0.5830 -0.4001
   45POPC  C316 6027   3.759   0.166   4.496 -0.1060 -0.1365 -0.2832
   45POPC  H16X 6028   3.732   0.065   4.458  2.5461 -0.9882 -0.0033
   45POPC  H16Y 6029   3.825   0.153   4.585  1.1097  0.3285 -1.1045
   45POPC  H16Z 6030   3.813   0.210   4.410 -0.2153  1.3151  0.3835
   46POPC     N 6031   7.473   1.099   6.867  0.1583 -0.1372  0.0856
   46POPC   C12 6032   7.564   1.020   6.775 -0.0559 -0.4438  0.1351
   46POPC  H12A 6036   7.494   0.975   6.706  0.7586  1.0818 -1.7593
   46POPC  H12B 6037   7.629   0.965   6.841 -0.6331 -1.1771  0.0997
   46POPC   C13 6033   7.550   1.172   6.974  0.1322 -0.3966  0.2828
   46POPC  H13A 6038   7.485   1.236   7.031  0.6643 -0.9932  1.5767
   46POPC  H13B 6039   7.595   1.099   7.039 -0.6188 -0.9876  0.1366
   46POPC  H13C 6040   7.626   1.231   6.924 -2.0617  1.2087 -1.2618
   46POPC   C14 6034   7.380   1.182   6.783  0.4293 -0.5277 -0.6105
   46POPC  H14A 6041   7.338   1.124   6.702  1.4472 -0.2460 -1.3495
   46POPC  H14B 6042   7.300   1.209   6.851  0.2334  0.9953 -1.4007
   46POPC  H14C 6043   7.419   1.273   6.740  0.0829  0.4277  1.0396
   46POPC   C15 6035   7.381   1.003   6.938  0.0546 -0.1232 -0.0306
   46POPC  H15A 6044   7.337   0.930   6.871 -0.6939 -0.5452  0.9118
   46POPC  H15B 6045   7.308   1.065   6.990  1.7969  2.1528 -0.2376
   46POPC  H15C 6046   7.434   0.945   7.012  2.5369  3.0712  0.8000
   46POPC   C11 6047   7.665   1.088   6.682 -0.4290 -0.1289 -0.0418
   46POPC  H11A 6048   7.723   1.014   6.622  3.4411  2.3931  0.4354
   46POPC  H11B 6049   7.747   1.138   6.737  0.1532  1.6473 -2.4350
   46POPC     P 6050   7.597   1.148   6.441 -0.0437 -0.2420 -0.3603
   46POPC   O13 6051   7.548   1.271   6.375  0.1941 -0.1327 -0.3312
   46POPC   O14 6052   7.516   1.025   6.422 -0.3445 -0.1160  0.0995
   46POPC   O12 6053   7.595   1.180   6.597  0.3010  0.0825 -0.4216
   46POPC   O11 6054   7.755   1.137   6.419 -0.0031 -0.3768 -0.0066
   46POPC    C1 6055   7.840   1.248   6.447 -0.2954 -0.2115  0.2300
   46POPC    HA 6056   7.932   1.199   6.485  1.3301  1.6153 -1.2155
   46POPC    HB 6057   7.796   1.318   6.521 -2.0700 -0.5158 -0.5210
   46POPC    C2 6058   7.870   1.326   6.318 -0.1212  0.5638  0.7346
   46POPC    HS 6059   7.804   1.415   6.308  2.4420  2.4532 -0.0426
   46POPC   O21 6060   7.849   1.236   6.209  0.0874  0.7806  0.5148
   46POPC   C21 6061   7.771   1.277   6.108  0.3263 -0.1297 -0.0489
   46POPC   O22 6062   7.741   1.393   6.089  0.2398 -0.1344  0.0540
   46POPC   C22 6063   7.732   1.153   6.028 -0.1436 -0.2007  0.2840
   46POPC   H2R 6064   7.653   1.098   6.083 -1.9027  2.7555  0.8434
   46POPC   H2S 6065   7.819   1.088   6.005 -0.9555 -1.2635  0.1703
   46POPC    C3 6066   0.053   1.376   6.314 -0.0182  0.3464  0.1779
   46POPC    HX 6067   0.131   1.307   6.352  1.0085  2.0487  1.2132
   46POPC    HY 6068   0.051   1.461   6.386  0.1977  1.6567 -1.3201
   46POPC   O31 6069   0.074   1.430   6.183  0.0364 -0.0716  0.0121
   46POPC   C31 6070   0.160   1.357   6.112  0.7567  0.8166 -0.0443
   46POPC   O32 6071   0.237   1.272   6.153 -0.2887 -0.3036 -0.3577
   46POPC   C32 6072   0.154   1.390   5.963  0.0443  0.1940 -0.1565
   46POPC   H2X 6073   0.215   1.480   5.944  0.2091  0.2643  0.6675
   46POPC   H2Y 6074   0.056   1.418   5.919 -0.8687  0.1484  1.7678
   46POPC   C23 6075   7.692   1.206   5.891  0.8857 -0.0619  0.0348
   46POPC   H3R 6076   7.614   1.285   5.903  1.8224  0.7232  1.0353
   46POPC   H3S 6077   7.644   1.121   5.838  2.3738 -1.0241  0.2128
   46POPC   C24 6078   7.796   1.260   5.793  0.4050 -0.1886 -0.5512
   46POPC   H4R 6079   7.867   1.174   5.791  1.3782  0.5641  0.6989
   46POPC   H4S 6080   7.840   1.355   5.833 -3.4627  0.9426  1.1939
   46POPC   C25 6081   7.752   1.291   5.650 -0.0766 -0.4152 -0.4506
   46POPC   H5R 6082   7.696   1.386   5.639 -1.1227 -1.0335 -0.5510
   46POPC   H5S 6083   7.691   1.208   5.608  0.4701 -0.7388 -0.6065
   46POPC   C26 6084   7.867   1.303   5.549  0.2154 -0.0748 -0.0790
   46POPC   H6R 6085   7.928   1.210   5.540  1.3978  0.6714  0.1082
   46POPC   H6S 6086   7.940   1.376   5.589  1.3263 -0.7193 -0.9199
   46POPC   C27 6087   7.805   1.351   5.418 -0.2253 -0.1397  0.1049
   46POPC   H7R 6088   7.891   1.353   5.348  1.6776 -1.0314  2.3470
   46POPC   H7S 6089   7.772   1.456   5.430 -1.1370 -0.2093 -1.6042
   46POPC   C28 6090   7.697   1.267   5.348 -0.1239  0.0056 -0.2297
   46POPC   H8R 6091   7.607   1.264   5.413 -1.3304  2.7215 -1.6965
   46POPC   H8S 6092   7.737   1.165   5.331  1.6153  0.6037  0.1372
   46POPC   C29 6093   7.647   1.343   5.229  0.3603  0.5014 -0.1237
   46POPC   H91 6094   7.632   1.450   5.245 -1.2837  0.1884  0.6124
   46POPC  C210 6095   7.623   1.292   5.107  0.4656  0.0877  0.0254
   46POPC  H101 6096   7.579   1.358   5.030 -2.0802 -0.1339  1.2338
   46POPC  C211 6097   7.647   1.149   5.069  0.2801  0.2131 -0.5653
   46POPC  H11R 6098   7.672   1.081   5.152 -0.0003  1.5491  0.6273
   46POPC  H11S 6099   7.738   1.149   5.006  0.9677  1.0907  0.4213
   46POPC  C212 6100   7.535   1.066   5.004  0.7566 -0.6265 -0.3204
   46POPC  H12R 6101   7.591   0.989   4.946  2.7474  0.1705  0.4909
   46POPC  H12S 6102   7.476   1.140   4.946 -0.5371 -1.9733 -0.7484
   46POPC  C213 6103   7.436   1.004   5.103  0.4940 -0.4161 -0.4482
   46POPC  H13R 6104   7.340   0.982   5.053  0.0160 -0.3381  0.4213
   46POPC  H13S 6105   7.414   1.082   5.179  1.9549  0.4882 -0.9180
   46POPC  C214 6106   7.481   0.868   5.157  0.5506 -0.2728 -0.1317
   46POPC  H14R 6107   7.555   0.887   5.238 -0.2296 -1.1002  0.7892
   46POPC  H14S 6108   7.543   0.820   5.078  0.7519  0.6401 -0.5404
   46POPC  C215 6109   7.372   0.769   5.197  0.1874  0.0018 -0.4445
   46POPC  H15R 6110   7.414   0.668   5.213  4.0965  1.5564 -0.3377
   46POPC  H15S 6111   7.312   0.765   5.103 -0.2173  0.0356 -0.1911
   46POPC  C216 6112   7.295   0.798   5.326  0.3614 -0.6364 -0.1978
   46POPC  H16R 6113   7.241   0.895   5.319  2.2657  0.5034  0.4247
   46POPC  H16S 6114   7.358   0.811   5.417  1.0929 -0.1815 -0.7659
   46POPC  C217 6115   7.188   0.696   5.365 -0.2138 -0.4685 -1.3261
   46POPC  H17R 6116   7.103   0.685   5.294 -1.6714 -1.0615  0.5017
   46POPC  H17S 6117   7.135   0.736   5.454 -0.3252  0.9827 -2.0329
   46POPC  C218 6118   7.232   0.553   5.397  0.2159 -0.0859 -0.1895
   46POPC  H18R 6119   7.304   0.544   5.481  0.2040  1.3550 -0.0137
   46POPC  H18S 6120   7.266   0.504   5.303  0.7016  0.3920 -0.2677
   46POPC  H18T 6121   7.136   0.503   5.421  0.7247 -0.1730  1.7016
   46POPC   C33 6122   0.232   1.283   5.886 -0.5933 -0.4984  0.1475
   46POPC   H3X 6123   0.165   1.196   5.877 -2.3733  0.6779  1.6915
   46POPC   H3Y 6124   0.327   1.259   5.938  0.9602  1.9017 -1.4187
   46POPC   C34 6125   0.263   1.333   5.744  0.2396 -0.0728  0.4745
   46POPC   H4X 6126   0.357   1.389   5.764 -0.4427  1.0418  0.6219
   46POPC   H4Y 6127   0.179   1.390   5.699  0.1358 -0.5402  0.0795
   46POPC   C35 6128   0.297   1.218   5.649  0.1542  0.6951 -0.4925
   46POPC   H5X 6129   0.216   1.151   5.614  1.6158 -0.5591 -1.5395
   46POPC   H5Y 6130   0.363   1.149   5.707  0.0320 -0.2840 -1.5005
   46POPC   C36 6131   0.389   1.260   5.534  0.7320 -0.5080 -0.4873
   46POPC   H6X 6132   0.479   1.195   5.536  0.8460 -0.3498 -0.3975
   46POPC   H6Y 6133   0.428   1.364   5.549  1.9115 -0.8909 -0.8567
   46POPC   C37 6134   0.312   1.270   5.402 -0.0057  0.7101  0.0247
   46POPC   H7X 6135   0.394   1.292   5.331  0.6689  2.0569  1.1897
   46POPC   H7Y 6136   0.235   1.350   5.408 -0.6100  0.1184  0.0993
   46POPC   C38 6137   0.236   1.144   5.360 -0.2189  0.9877 -0.4265
   46POPC   H8X 6138   0.135   1.154   5.405 -1.1949  0.6014 -2.4705
   46POPC   H8Y 6139   0.283   1.053   5.402 -0.0367  0.7198 -1.2078
   46POPC   C39 6140   0.241   1.140   5.207 -0.2565  0.5511 -0.4149
   46POPC   H9X 6141   0.203   1.239   5.175 -0.9897  1.0131  1.7982
   46POPC   H9Y 6142   0.164   1.061   5.191  0.4976 -0.0240 -1.2292
   46POPC  C310 6143   0.375   1.103   5.143 -0.2829 -0.0410 -0.1315
   46POPC  H10X 6144   0.430   1.022   5.195  2.0403  2.0335  0.7226
   46POPC  H10Y 6145   0.433   1.197   5.152  0.7318 -0.4221 -2.2775
   46POPC  C311 6146   0.342   1.059   5.000  0.0863  0.1816 -0.2857
   46POPC  H11X 6147   0.264   1.119   4.949  1.4286  1.5685 -0.7293
   46POPC  H11Y 6148   0.312   0.952   4.997 -1.6403  0.6735 -1.5371
   46POPC  C312 6149   0.467   1.062   4.912  0.7953 -0.4017  0.6866
   46POPC  H12X 6150   0.441   0.996   4.826  0.3186  0.4232  0.1873
   46POPC  H12Y 6151   0.551   1.009   4.962  2.4914 -1.0416 -2.7374
   46POPC  C313 6152   0.509   1.194   4.847 -0.0978 -0.5097 -0.1314
   46POPC  H13X 6153   0.534   1.263   4.931  0.2024 -0.8112  0.0300
   46POPC  H13Y 6154   0.424   1.243   4.796  1.6218  0.8714 -1.7461
   46POPC  C314 6155   0.627   1.193   4.750  0.5826  0.4842  0.6714
   46POPC  H14X 6156   0.618   1.099   4.692  0.0268  2.4079 -2.4924
   46POPC  H14Y 6157   0.719   1.187   4.813  2.5443 -2.0442 -2.2840
   46POPC  C315 6158   0.644   1.304   4.646 -0.0383 -0.0520 -0.0086
   46POPC  H15X 6159   0.644   1.406   4.692 -0.4599  0.3863 -0.9727
   46POPC  H15Y 6160   0.554   1.299   4.580 -0.0450 -1.5367  0.1039
   46POPC  C316 6161   0.769   1.286   4.561  0.0927 -0.0828  0.1876
   46POPC  H16X 6162   0.783   1.351   4.471  0.5227  0.0450  0.3484
   46POPC  H16Y 6163   0.786   1.183   4.524 -2.0299  0.1786 -1.6880
   46POPC  H16Z 6164   0.862   1.306   4.617  0.9216 -0.4937 -1.0187
   47POPC     N 6165   4.597   3.343   6.641  0.1359 -0.0073 -0.0579
   47POPC   C12 6166   4.652   3.381   6.506  0.1919  0.1685  0.0146
   47POPC  H12A 6170   4.746   3.432   6.522 -0.1051  1.2234 -1.4465
   47POPC  H12B 6171   4.585   3.456   6.466 -0.3619 -0.6902 -0.6970
   47POPC   C13 6167   4.484   3.245   6.619  0.1150  0.1150 -0.4907
   47POPC  H13A 6172   4.411   3.293   6.556 -0.7939 -0.2969  0.2478
   47POPC  H13B 6173   4.539   3.168   6.566  1.1199  1.3115 -1.2147
   47POPC  H13C 6174   4.445   3.215   6.715  3.2479  0.0983  0.8521
   47POPC   C14 6168   4.702   3.281   6.731  0.0777 -0.3988 -0.2551
   47POPC  H14A 6175   4.707   3.174   6.721  0.6163 -0.3628 -0.3966
   47POPC  H14B 6176   4.800   3.325   6.719  0.2583 -0.1121  2.0083
   47POPC  H14C 6177   4.677   3.312   6.832 -2.2598  2.0303 -1.5116
   47POPC   C15 6169   4.540   3.464   6.710 -0.1013 -0.1525  0.0037
   47POPC  H15A 6178   4.467   3.519   6.653  1.6574  2.2515 -0.0088
   47POPC  H15B 6179   4.619   3.538   6.720 -0.7210  0.1315  3.4164
   47POPC  H15C 6180   4.506   3.440   6.809 -1.8955  1.0753 -0.2948
   47POPC   C11 6181   4.687   3.264   6.413  0.0397  0.1580 -0.0283
   47POPC  H11A 6182   4.722   3.310   6.318  0.3072 -2.0709 -1.0267
   47POPC  H11B 6183   4.595   3.209   6.383  0.5485 -1.5077  1.3737
   47POPC     P 6184   4.934   3.196   6.452 -0.0094 -0.3044 -0.0027
   47POPC   O13 6185   4.991   3.060   6.438  0.7429 -0.0300  0.3688
   47POPC   O14 6186   4.994   3.277   6.560 -0.4954  0.0792 -0.0181
   47POPC   O12 6187   4.778   3.174   6.476 -0.0550  0.1867  0.1495
   47POPC   O11 6188   4.964   3.279   6.318  0.4759 -0.2883  0.1152
   47POPC    C1 6189   4.968   3.202   6.198 -0.3811  0.1012 -0.1645
   47POPC    HA 6190   4.894   3.246   6.128 -0.8819 -0.0749  0.2414
   47POPC    HB 6191   4.920   3.102   6.205  0.5400 -0.3140  0.3067
   47POPC    C2 6192   5.107   3.192   6.134 -0.1675  0.1633  0.2830
   47POPC    HS 6193   5.164   3.115   6.190 -1.0348  0.2696  1.3258
   47POPC   O21 6194   5.176   3.316   6.153  0.0015  0.1766 -0.3977
   47POPC   C21 6195   5.306   3.310   6.123  0.1921 -0.0952  0.4888
   47POPC   O22 6196   5.360   3.207   6.087  0.5035  0.1376  0.2884
   47POPC   C22 6197   5.371   3.446   6.142 -0.1890  0.1809 -0.1594
   47POPC   H2R 6198   5.480   3.437   6.161 -0.5674 -0.8139  1.6351
   47POPC   H2S 6199   5.325   3.491   6.233 -2.1299 -2.3658  0.1688
   47POPC    C3 6200   5.090   3.147   5.988  0.2694  0.0036  0.2815
   47POPC    HX 6201   5.007   3.073   5.990 -0.5059  0.8708  0.3089
   47POPC    HY 6202   5.181   3.091   5.955  0.1228  1.6088 -3.0441
   47POPC   O31 6203   5.066   3.260   5.903  0.3773 -0.2735 -0.1226
   47POPC   C31 6204   5.061   3.219   5.776  0.3998 -0.1053 -0.1772
   47POPC   O32 6205   5.072   3.104   5.737  0.5504 -0.1839  0.0967
   47POPC   C32 6206   5.040   3.341   5.687  0.4585 -0.1463 -0.2471
   47POPC   H2X 6207   5.129   3.407   5.686 -1.9945  3.4254  2.7243
   47POPC   H2Y 6208   4.968   3.412   5.734  0.3754 -0.4462  0.0828
   47POPC   C23 6209   5.348   3.535   6.020 -0.1141 -0.1140 -0.3890
   47POPC   H3R 6210   5.374   3.643   6.027  0.3233 -0.1045 -2.0592
   47POPC   H3S 6211   5.237   3.533   6.015 -0.1430 -0.2519  0.3128
   47POPC   C24 6212   5.422   3.474   5.901  0.3236 -0.5854  0.1261
   47POPC   H4R 6213   5.385   3.369   5.893  1.1136 -1.2485  4.0962
   47POPC   H4S 6214   5.531   3.470   5.924  0.4036 -1.8393 -0.4241
   47POPC   C25 6215   5.395   3.532   5.762 -0.3280 -0.1785  0.4219
   47POPC   H5R 6216   5.442   3.633   5.760 -3.7715  1.6090  2.9036
   47POPC   H5S 6217   5.286   3.554   5.754 -0.3811 -1.0480 -1.4003
   47POPC   C26 6218   5.434   3.435   5.650  0.3422  0.6673 -0.0786
   47POPC   H6R 6219   5.380   3.339   5.658  1.1368  0.2443  0.3047
   47POPC   H6S 6220   5.542   3.412   5.655  0.4637  1.3929  1.0200
   47POPC   C27 6221   5.388   3.490   5.515 -0.5348 -0.1878 -0.1295
   47POPC   H7R 6222   5.442   3.586   5.504 -0.7043  0.2457  2.5029
   47POPC   H7S 6223   5.284   3.522   5.492  0.1060  0.5812 -1.9943
   47POPC   C28 6224   5.420   3.391   5.403  0.0018  0.2817 -0.3891
   47POPC   H8R 6225   5.517   3.342   5.427  1.0388  2.0391 -0.9284
   47POPC   H8S 6226   5.427   3.434   5.301 -3.4244  0.6256 -0.5119
   47POPC   C29 6227   5.312   3.288   5.385 -0.1249  0.3533 -0.0331
   47POPC   H91 6228   5.257   3.278   5.480  0.9182 -0.6504  0.4764
   47POPC  C210 6229   5.295   3.201   5.285  0.5060  0.1823  0.0027
   47POPC  H101 6230   5.201   3.144   5.275  0.7883 -0.1624 -0.7498
   47POPC  C211 6231   5.381   3.190   5.162 -0.0814  0.1513 -0.4082
   47POPC  H11R 6232   5.447   3.102   5.175  0.8551  0.7405 -1.1080
   47POPC  H11S 6233   5.435   3.282   5.131  0.3201 -0.6546 -2.1328
   47POPC  C212 6234   5.289   3.150   5.047 -0.1453  0.0817 -0.3331
   47POPC  H12R 6235   5.202   3.219   5.055 -0.3597  0.0200 -1.9340
   47POPC  H12S 6236   5.251   3.048   5.069 -1.0858  0.5962  0.4507
   47POPC  C213 6237   5.357   3.154   4.909  0.8161 -0.5415  0.1210
   47POPC  H13R 6238   5.298   3.095   4.836  0.4396  0.1957 -0.1759
   47POPC  H13S 6239   5.464   3.123   4.913  0.8490 -0.3337  1.2179
   47POPC  C214 6240   5.375   3.299   4.865 -0.6114 -0.2971  0.3185
   47POPC  H14R 6241   5.436   3.358   4.936 -1.2725 -0.3655  0.9506
   47POPC  H14S 6242   5.273   3.344   4.862  0.5308  2.2344 -2.5012
   47POPC  C215 6243   5.442   3.319   4.729 -1.0231  0.2162  0.1877
   47POPC  H15R 6244   5.538   3.263   4.723 -2.0317 -1.5055  0.0117
   47POPC  H15S 6245   5.455   3.429   4.718  0.4327  0.0299 -0.0460
   47POPC  C216 6246   5.356   3.273   4.612 -0.0698 -0.5543 -0.2148
   47POPC  H16R 6247   5.259   3.326   4.598  0.3612  0.2355 -0.2367
   47POPC  H16S 6248   5.335   3.165   4.632  0.2848 -0.2810  1.7197
   47POPC  C217 6249   5.421   3.299   4.476  0.4802 -0.3164  0.0936
   47POPC  H17R 6250   5.400   3.402   4.440  1.5090 -0.0425  0.2629
   47POPC  H17S 6251   5.358   3.247   4.401 -0.6846  1.9823 -0.5651
   47POPC  C218 6252   5.571   3.271   4.463  0.4744 -0.2607 -0.0855
   47POPC  H18R 6253   5.601   3.165   4.476  2.4122  0.3600  0.6306
   47POPC  H18S 6254   5.626   3.321   4.545  2.9083  0.3199 -2.0007
   47POPC  H18T 6255   5.614   3.306   4.366 -0.0570  0.1064 -0.1941
   47POPC   C33 6256   4.980   3.302   5.551 -1.0354  0.6558  0.1710
   47POPC   H3X 6257   5.040   3.218   5.511 -0.4214  1.1065  0.1448
   47POPC   H3Y 6258   4.984   3.385   5.478 -0.6309  1.5904  1.2341
   47POPC   C34 6259   4.838   3.247   5.568 -0.6563 -0.2219  0.5456
   47POPC   H4X 6260   4.764   3.329   5.581 -1.7387 -0.4379 -3.4828
   47POPC   H4Y 6261   4.828   3.192   5.664  1.8300  1.3134  1.7491
   47POPC   C35 6262   4.787   3.159   5.454 -0.2062  0.0212  0.1544
   47POPC   H5X 6263   4.687   3.128   5.491  0.5791  1.1666  3.3369
   47POPC   H5Y 6264   4.848   3.069   5.430  0.4735  0.4560  0.2192
   47POPC   C36 6265   4.766   3.235   5.322 -0.0759  0.0915  0.1744
   47POPC   H6X 6266   4.860   3.287   5.292 -0.0326 -0.2958 -0.3737
   47POPC   H6Y 6267   4.688   3.308   5.350 -0.1169  0.8999 -1.9612
   47POPC   C37 6268   4.719   3.151   5.203  0.0277 -0.3166  0.4213
   47POPC   H7X 6269   4.766   3.051   5.215  0.8383  0.1956  1.6643
   47POPC   H7Y 6270   4.746   3.196   5.106  1.6372 -0.3417  0.8453
   47POPC   C38 6271   4.567   3.135   5.202 -0.0454  0.3983  0.2493
   47POPC   H8X 6272   4.518   3.234   5.217 -1.4192 -0.3509  0.7260
   47POPC   H8Y 6273   4.542   3.069   5.287 -1.5401  1.8664  0.9713
   47POPC   C39 6274   4.507   3.068   5.078  0.4430  0.2561  0.0907
   47POPC   H9X 6275   4.546   2.964   5.090  1.7077  0.8326  1.1230
   47POPC   H9Y 6276   4.556   3.110   4.988  0.8104  2.8346  1.4757
   47POPC  C310 6277   4.356   3.060   5.055  0.3558  0.3730  0.6013
   47POPC  H10X 6278   4.304   2.996   5.130 -0.5748  1.8491  1.2299
   47POPC  H10Y 6279   4.349   3.003   4.959 -0.4055 -2.2138  2.1521
   47POPC  C311 6280   4.282   3.193   5.042  0.2133  0.2576  0.2270
   47POPC  H11X 6281   4.328   3.276   5.100 -0.9104  0.6776  0.5165
   47POPC  H11Y 6282   4.182   3.189   5.089  0.9405  4.0389  2.3527
   47POPC  C312 6283   4.258   3.241   4.898 -0.2020  0.0195  0.2178
   47POPC  H12X 6284   4.203   3.159   4.847 -2.7262  0.4346  2.1607
   47POPC  H12Y 6285   4.351   3.258   4.840  0.1308 -2.2245  0.0479
   47POPC  C313 6286   4.172   3.367   4.903 -0.3230 -0.0392 -0.3958
   47POPC  H13X 6287   4.209   3.437   4.981  0.4489  0.0865 -0.8625
   47POPC  H13Y 6288   4.069   3.343   4.935 -0.4781 -1.6579 -1.9922
   47POPC  C314 6289   4.184   3.459   4.780 -0.2185 -0.2191 -0.5206
   47POPC  H14X 6290   4.159   3.406   4.686 -1.2307 -0.3707 -0.1767
   47POPC  H14Y 6291   4.289   3.494   4.775 -0.8420  2.0560  1.1335
   47POPC  C315 6292   4.092   3.581   4.784 -0.0197 -0.0622 -0.7449
   47POPC  H15X 6293   4.079   3.617   4.888  0.1493 -0.1012 -0.7088
   47POPC  H15Y 6294   3.989   3.558   4.750 -0.4463 -0.8954  1.0810
   47POPC  C316 6295   4.140   3.696   4.695  0.3523  0.3549 -0.0095
   47POPC  H16X 6296   4.078   3.787   4.712  0.0437  0.4837 -1.7647
   47POPC  H16Y 6297   4.118   3.680   4.588  0.0933 -0.4175  0.1560
   47POPC  H16Z 6298   4.244   3.730   4.712 -0.4905  2.8595  0.4394
   48POPC     N 6299   6.146   4.806   6.720 -0.3092  0.3127  0.1298
   48POPC   C12 6300   6.292   4.843   6.717 -0.1382 -0.3688  0.0823
   48POPC  H12A 6304   6.333   4.833   6.816  0.3823  0.2716 -0.0660
   48POPC  H12B 6305   6.288   4.947   6.691 -3.1356 -0.6115 -0.6192
   48POPC   C13 6301   6.090   4.820   6.580  0.1527 -0.2905 -0.1178
   48POPC  H13A 6306   5.983   4.809   6.585  0.3132 -1.0681  1.9523
   48POPC  H13B 6307   6.117   4.916   6.539  1.2374 -0.8410 -0.7324
   48POPC  H13C 6308   6.135   4.739   6.524  0.5309 -1.4883  1.8698
   48POPC   C14 6302   6.127   4.666   6.774  0.2653  0.1100 -0.1841
   48POPC  H14A 6309   6.183   4.612   6.700 -1.2856 -1.3354 -0.3239
   48POPC  H14B 6310   6.183   4.658   6.866  0.1986  0.7581 -0.0816
   48POPC  H14C 6311   6.021   4.645   6.776 -0.2257  2.3272 -0.8868
   48POPC   C15 6303   6.065   4.900   6.806 -0.7763  0.1753 -0.1565
   48POPC  H15A 6312   6.107   4.882   6.903 -0.6703  0.8289 -0.0767
   48POPC  H15B 6313   5.959   4.878   6.808 -1.4137  3.0151 -0.8045
   48POPC  H15C 6314   6.080   4.995   6.757  1.1214  1.1323  2.1884
   48POPC   C11 6315   6.380   4.774   6.611 -0.0780 -0.1326 -0.0191
   48POPC  H11A 6316   6.481   4.819   6.626 -0.5176  0.5615  0.9718
   48POPC  H11B 6317   6.347   4.804   6.509 -3.1974  3.7208  1.9716
   48POPC     P 6318   6.387   4.536   6.521  0.0033  0.0439  0.3809
   48POPC   O13 6319   6.414   4.398   6.568  1.1901  0.1724  0.0972
   48POPC   O14 6320   6.486   4.597   6.430 -0.3471 -0.1272 -0.1225
   48POPC   O12 6321   6.381   4.636   6.646 -0.2911 -0.0245  0.4209
   48POPC   O11 6322   6.242   4.552   6.456  0.0752  0.2080  0.2619
   48POPC    C1 6323   6.201   4.466   6.350 -0.4093  0.2937  0.3742
   48POPC    HA 6324   6.096   4.442   6.374 -0.7318  0.2230 -1.0694
   48POPC    HB 6325   6.259   4.371   6.349  0.9005  1.0595 -2.8029
   48POPC    C2 6326   6.205   4.535   6.213 -0.0563  0.0321  0.2508
   48POPC    HS 6327   6.280   4.482   6.150 -0.6708 -0.5749  0.0127
   48POPC   O21 6328   6.240   4.671   6.238 -0.1015  0.0767  0.0777
   48POPC   C21 6329   6.329   4.724   6.154  0.3080 -0.1813  0.3462
   48POPC   O22 6330   6.386   4.667   6.062 -0.2440 -0.2297  0.0294
   48POPC   C22 6331   6.332   4.873   6.185 -0.5241 -0.2164  0.6019
   48POPC   H2R 6332   6.398   4.881   6.274  2.5822 -1.1212 -1.5621
   48POPC   H2S 6333   6.229   4.913   6.199 -1.3665 -1.3857 -1.9877
   48POPC    C3 6334   6.067   4.519   6.145  0.1849 -0.1382 -0.2061
   48POPC    HX 6335   5.986   4.553   6.213  1.0814  2.0522 -0.1954
   48POPC    HY 6336   6.049   4.410   6.145  0.2503 -0.1531  0.4609
   48POPC   O31 6337   6.066   4.580   6.016 -0.0663 -0.1938 -0.2301
   48POPC   C31 6338   6.004   4.698   6.002 -0.0352 -0.2042 -0.4531
   48POPC   O32 6339   5.936   4.756   6.085  0.2524 -0.3046 -0.1518
   48POPC   C32 6340   6.029   4.737   5.857  0.2089  0.5138 -0.2173
   48POPC   H2X 6341   6.136   4.718   5.832  0.0228  0.4788 -0.9984
   48POPC   H2Y 6342   6.014   4.846   5.844  3.0821  1.0903  0.9036
   48POPC   C23 6343   6.410   4.961   6.088 -0.5626 -0.4421  0.3669
   48POPC   H3R 6344   6.486   4.900   6.035 -0.4493  0.5859 -0.6803
   48POPC   H3S 6345   6.457   5.047   6.141 -2.9089  0.1988  1.4854
   48POPC   C24 6346   6.322   5.021   5.977  0.1866  0.5363  0.2987
   48POPC   H4R 6347   6.256   5.096   6.025  0.2690 -0.0020  1.2707
   48POPC   H4S 6348   6.254   4.941   5.942  0.8085  1.0651 -2.2169
   48POPC   C25 6349   6.385   5.081   5.851 -0.1230  0.4541  0.1060
   48POPC   H5R 6350   6.416   4.993   5.791 -0.8085  0.8235 -0.8032
   48POPC   H5S 6351   6.472   5.142   5.884 -1.2776  1.3830  1.5272
   48POPC   C26 6352   6.295   5.159   5.755  0.2036  0.5496 -0.1221
   48POPC   H6R 6353   6.360   5.192   5.671 -1.2113  0.6845 -1.1732
   48POPC   H6S 6354   6.253   5.244   5.814 -1.1894  0.5531 -1.0929
   48POPC   C27 6355   6.183   5.071   5.700  0.3865  0.1447  0.1505
   48POPC   H7R 6356   6.106   5.059   5.780  1.4081  0.2275  1.1550
   48POPC   H7S 6357   6.223   4.971   5.674  4.0646  1.4803  0.3842
   48POPC   C28 6358   6.138   5.133   5.567  0.4355  0.1941  0.1569
   48POPC   H8R 6359   6.074   5.060   5.513  0.3256  0.7186 -0.4259
   48POPC   H8S 6360   6.224   5.160   5.503 -1.2660 -0.8289 -2.6536
   48POPC   C29 6361   6.042   5.246   5.591 -0.3782 -0.4958  0.1707
   48POPC   H91 6362   5.974   5.237   5.677 -2.3426  1.6524 -1.1087
   48POPC  C210 6363   6.022   5.344   5.502  0.4246 -0.4444  0.0428
   48POPC  H101 6364   5.932   5.405   5.520  1.6713  1.1195  1.0754
   48POPC  C211 6365   6.102   5.367   5.377 -0.5963  0.1631 -0.5057
   48POPC  H11R 6366   6.210   5.359   5.401 -0.2718 -1.7943 -2.4984
   48POPC  H11S 6367   6.081   5.467   5.334 -1.1180  0.1937 -0.1933
   48POPC  C212 6368   6.060   5.269   5.267 -0.0027 -0.3808 -0.2494
   48POPC  H12R 6369   5.949   5.276   5.262  0.1288  0.8425 -1.7603
   48POPC  H12S 6370   6.086   5.170   5.310  0.5644 -0.4348 -0.7114
   48POPC  C213 6371   6.118   5.274   5.126  0.1526 -0.0169 -0.1730
   48POPC  H13R 6372   6.220   5.232   5.111 -0.2954 -0.9906 -0.5143
   48POPC  H13S 6373   6.115   5.384   5.106 -0.0236 -0.4198 -2.4913
   48POPC  C214 6374   6.022   5.220   5.020  0.1341 -0.4057  0.0432
   48POPC  H14R 6375   5.924   5.272   5.014  0.2662  0.0457  1.5554
   48POPC  H14S 6376   5.989   5.117   5.046  0.1022 -0.3912  0.0600
   48POPC  C215 6377   6.081   5.225   4.879  0.0329 -0.5862 -0.0064
   48POPC  H15R 6378   6.170   5.160   4.893  0.3003 -0.1308  0.4461
   48POPC  H15S 6379   6.126   5.326   4.867  1.1197 -1.1183 -0.4900
   48POPC  C216 6380   5.988   5.186   4.764 -0.4674  0.0930  0.1592
   48POPC  H16R 6381   5.916   5.267   4.744 -0.6736 -0.1885 -0.2437
   48POPC  H16S 6382   5.938   5.088   4.782 -0.0935  0.0759  1.1530
   48POPC  C217 6383   6.073   5.149   4.642  0.2304 -0.5061  0.8179
   48POPC  H17R 6384   5.995   5.113   4.571 -0.4446 -0.0410  1.3196
   48POPC  H17S 6385   6.140   5.063   4.662  1.2966  0.5151  1.7238
   48POPC  C218 6386   6.149   5.263   4.574 -0.0053 -0.8475 -0.0276
   48POPC  H18R 6387   6.170   5.253   4.465 -2.6286 -2.1128 -0.4416
   48POPC  H18S 6388   6.248   5.270   4.626 -0.6136 -0.5549  1.1034
   48POPC  H18T 6389   6.098   5.359   4.595  0.6875 -0.3909 -0.3882
   48POPC   C33 6390   5.942   4.647   5.769  0.1937 -0.2815  0.6016
   48POPC   H3X 6391   5.836   4.671   5.790  0.2168 -0.4399  0.8984
   48POPC   H3Y 6392   5.967   4.545   5.804  2.0636 -0.4408 -1.0989
   48POPC   C34 6393   5.965   4.664   5.619 -0.1225 -0.6392  0.5140
   48POPC   H4X 6394   5.926   4.574   5.566 -2.1820 -0.8582  2.3348
   48POPC   H4Y 6395   6.070   4.677   5.584  0.1149 -2.3847  0.5164
   48POPC   C35 6396   5.886   4.780   5.557  0.5019 -0.5485 -0.1212
   48POPC   H5X 6397   5.920   4.869   5.616  0.7744 -0.9172  0.2859
   48POPC   H5Y 6398   5.780   4.769   5.588  1.0155 -0.2860  1.8085
   48POPC   C36 6399   5.903   4.798   5.406 -0.2098 -0.1994 -0.1602
   48POPC   H6X 6400   6.010   4.803   5.377 -0.1069 -2.1030 -0.1921
   48POPC   H6Y 6401   5.851   4.892   5.378  0.2213 -0.1310 -0.7359
   48POPC   C37 6402   5.828   4.692   5.326  0.0540 -0.6588  0.1966
   48POPC   H7X 6403   5.721   4.678   5.352 -0.1102  1.9264  0.9709
   48POPC   H7Y 6404   5.884   4.596   5.335  3.0755  1.2033  1.9229
   48POPC   C38 6405   5.817   4.732   5.179  0.1477 -1.0762  0.0748
   48POPC   H8X 6406   5.914   4.730   5.124  0.3171  2.2074  0.1802
   48POPC   H8Y 6407   5.790   4.839   5.186  2.8226 -0.3923  0.6606
   48POPC   C39 6408   5.713   4.656   5.097  0.2657 -0.4190 -0.6860
   48POPC   H9X 6409   5.617   4.695   5.138 -0.1340 -0.3667 -1.6478
   48POPC   H9Y 6410   5.728   4.548   5.114  0.8454 -0.1270  0.6992
   48POPC  C310 6411   5.713   4.687   4.947 -0.8063  0.3708 -0.5276
   48POPC  H10X 6412   5.810   4.662   4.901  0.4183  2.1984  0.9847
   48POPC  H10Y 6413   5.709   4.797   4.931 -3.5414  0.6313  1.6148
   48POPC  C311 6414   5.599   4.621   4.869 -0.4849 -0.5891 -0.1964
   48POPC  H11X 6415   5.566   4.681   4.781  0.7676 -0.6469 -0.7210
   48POPC  H11Y 6416   5.515   4.626   4.942  0.2061  2.2307  0.4857
   48POPC  C312 6417   5.621   4.472   4.844 -0.2985 -0.5818 -0.0741
   48POPC  H12X 6418   5.538   4.427   4.784  0.9662 -2.2826 -0.5751
   48POPC  H12Y 6419   5.637   4.417   4.939 -1.4947 -0.0052  0.4726
   48POPC  C313 6420   5.751   4.446   4.767 -0.2080 -0.2336 -0.0410
   48POPC  H13X 6421   5.758   4.337   4.749 -1.3872 -0.5005  0.9777
   48POPC  H13Y 6422   5.841   4.469   4.828 -0.0313 -1.9828  0.3925
   48POPC  C314 6423   5.771   4.520   4.635 -0.4869  0.2722  0.1980
   48POPC  H14X 6424   5.873   4.492   4.601 -0.8869  0.3140 -1.0618
   48POPC  H14Y 6425   5.766   4.628   4.659  0.9987  0.4532 -0.2707
   48POPC  C315 6426   5.667   4.467   4.536 -0.2043  0.5614 -0.2537
   48POPC  H15X 6427   5.564   4.494   4.565 -0.5596 -0.0857 -0.9095
   48POPC  H15Y 6428   5.663   4.357   4.523 -0.9642  0.5412  0.1507
   48POPC  C316 6429   5.690   4.520   4.394 -0.5510  0.3281 -0.3986
   48POPC  H16X 6430   5.643   4.620   4.379  1.4234  1.3647  0.1868
   48POPC  H16Y 6431   5.649   4.454   4.315 -1.7523 -1.2464  1.4966
   48POPC  H16Z 6432   5.799   4.525   4.376 -0.0702  0.6026  2.3313
   49POPC     N 6433   2.162   0.601   6.206 -0.1443 -0.4078  0.0758
   49POPC   C12 6434   2.128   0.746   6.180  0.3710 -0.3162 -0.0924
   49POPC  H12A 6438   2.225   0.792   6.187  0.6561 -0.8912 -0.2925
   49POPC  H12B 6439   2.066   0.773   6.264  2.1351 -0.2608  1.2084
   49POPC   C13 6435   2.206   0.590   6.350 -0.3289 -0.0735  0.1583
   49POPC  H13A 6440   2.249   0.495   6.375 -2.7391 -1.3691 -0.4323
   49POPC  H13B 6441   2.288   0.661   6.357 -1.5680  1.3089  1.0932
   49POPC  H13C 6442   2.119   0.604   6.413  0.9207 -0.7507  2.0788
   49POPC   C14 6436   2.039   0.514   6.198  0.1001 -0.7698  0.2745
   49POPC  H14A 6443   2.014   0.497   6.095  0.4751  0.9194 -0.1018
   49POPC  H14B 6444   2.055   0.424   6.256 -0.0857  0.3160  2.0601
   49POPC  H14C 6445   1.949   0.558   6.239 -0.1082 -0.6327 -0.3283
   49POPC   C15 6437   2.264   0.554   6.105 -0.2450 -0.2664 -0.0921
   49POPC  H15A 6446   2.292   0.455   6.137  3.5376  0.4391 -0.9864
   49POPC  H15B 6447   2.353   0.615   6.106  0.4556 -1.3000  0.1613
   49POPC  H15C 6448   2.224   0.543   6.005  1.6849 -0.6679 -0.8263
   49POPC   C11 6449   2.062   0.785   6.047 -0.4545 -0.2799  0.3240
   49POPC  H11A 6450   2.074   0.896   6.041 -1.7541 -0.0599  1.4233
   49POPC  H11B 6451   1.954   0.763   6.056 -0.8859  1.9025  0.8653
   49POPC     P 6452   2.065   0.755   5.793  0.0885 -0.0971 -0.1841
   49POPC   O13 6453   1.920   0.730   5.801  0.0497  0.2278  0.1790
   49POPC   O14 6454   2.141   0.673   5.697 -0.1124  0.1318 -0.5386
   49POPC   O12 6455   2.129   0.724   5.937 -0.6319 -0.1257  0.1306
   49POPC   O11 6456   2.104   0.909   5.771 -0.0088 -0.0098  0.2544
   49POPC    C1 6457   2.228   0.960   5.821  0.0982  0.1434 -0.1690
   49POPC    HA 6458   2.308   0.884   5.811  0.5989  0.6239  0.1929
   49POPC    HB 6459   2.224   0.977   5.930  1.2939  3.8858 -0.6565
   49POPC    C2 6460   2.278   1.085   5.747  0.2929  0.0128 -0.2590
   49POPC    HS 6461   2.243   1.162   5.819 -0.5010 -1.7571  1.2684
   49POPC   O21 6462   2.225   1.103   5.616 -0.4802  0.2676  0.0862
   49POPC   C21 6463   2.215   1.229   5.573 -0.4441  0.2270 -0.0441
   49POPC   O22 6464   2.219   1.321   5.653  0.0575  0.0593  0.1305
   49POPC   C22 6465   2.185   1.244   5.425  0.0198  0.2306 -0.1394
   49POPC   H2R 6466   2.254   1.183   5.363 -0.8692 -0.0909 -0.8303
   49POPC   H2S 6467   2.202   1.353   5.415  3.1364 -0.1317  0.7808
   49POPC    C3 6468   2.432   1.092   5.745  0.2573  0.7222 -0.7115
   49POPC    HX 6469   2.472   1.090   5.848 -1.8974 -0.1563  0.1350
   49POPC    HY 6470   2.468   1.185   5.697  0.2044  1.5941  0.9212
   49POPC   O31 6471   2.486   0.977   5.679 -0.2582  0.1302 -0.1145
   49POPC   C31 6472   2.521   0.990   5.550 -0.5885 -0.2881 -0.2481
   49POPC   O32 6473   2.525   1.093   5.484  0.2207 -0.0193  0.2173
   49POPC   C32 6474   2.547   0.849   5.500  0.5710 -0.0103 -0.4384
   49POPC   H2X 6475   2.530   0.787   5.591  0.6916  0.5679 -0.0205
   49POPC   H2Y 6476   2.649   0.836   5.458 -0.7492  1.9944 -4.5957
   49POPC   C23 6477   2.040   1.200   5.403 -0.0891  0.4376  0.1615
   49POPC   H3R 6478   1.974   1.225   5.488 -0.3474 -0.8912  0.3637
   49POPC   H3S 6479   2.051   1.090   5.402  0.1808  0.4513  1.2041
   49POPC   C24 6480   1.969   1.248   5.276  0.1719  0.1602 -0.0906
   49POPC   H4R 6481   1.973   1.359   5.273 -1.8727  0.2931  1.0134
   49POPC   H4S 6482   1.863   1.216   5.282  0.5950 -1.1983  0.3833
   49POPC   C25 6483   2.031   1.189   5.149 -0.4471 -0.5324 -0.0744
   49POPC   H5R 6484   2.010   1.081   5.164  2.7863 -1.3150 -0.7778
   49POPC   H5S 6485   2.142   1.196   5.159 -0.5382  2.7909 -0.9042
   49POPC   C26 6486   1.982   1.250   5.018  0.1565 -0.5603 -0.3158
   49POPC   H6R 6487   2.047   1.211   4.937 -0.5413 -2.4499  0.0147
   49POPC   H6S 6488   2.000   1.359   5.020 -0.4599 -0.4242 -1.4522
   49POPC   C27 6489   1.834   1.222   4.989  0.1151 -0.2182 -0.4431
   49POPC   H7R 6490   1.771   1.260   5.072  2.7628 -1.3600  2.2294
   49POPC   H7S 6491   1.816   1.113   4.976  3.0529 -0.6444 -1.2729
   49POPC   C28 6492   1.802   1.291   4.857  0.3843  0.2545 -0.2620
   49POPC   H8R 6493   1.703   1.257   4.819  0.6899 -1.7513  0.6636
   49POPC   H8S 6494   1.873   1.267   4.775  3.0056  1.4592  1.5866
   49POPC   C29 6495   1.772   1.437   4.877 -0.9933 -0.0300 -0.1567
   49POPC   H91 6496   1.703   1.462   4.958 -0.5985  0.1050  0.1414
   49POPC  C210 6497   1.822   1.537   4.803 -0.3723 -0.3745 -0.2054
   49POPC  H101 6498   1.796   1.636   4.841 -0.0812  0.2417 -1.5699
   49POPC  C211 6499   1.917   1.520   4.687 -0.3452 -0.0362 -0.2333
   49POPC  H11R 6500   1.915   1.619   4.636  0.2594 -1.4117 -2.9951
   49POPC  H11S 6501   1.874   1.448   4.614  0.7125 -0.7805 -0.1278
   49POPC  C212 6502   2.060   1.478   4.721 -0.5290 -0.2385  0.2899
   49POPC  H12R 6503   2.067   1.394   4.794  1.9474  0.2824  0.6897
   49POPC  H12S 6504   2.105   1.565   4.774  0.6645  0.3668 -1.6864
   49POPC  C213 6505   2.131   1.433   4.593 -0.5447  0.6815 -0.0427
   49POPC  H13R 6506   2.123   1.517   4.521 -1.2565  2.0476  1.5826
   49POPC  H13S 6507   2.080   1.342   4.555 -0.7788  0.5725  0.5280
   49POPC  C214 6508   2.280   1.402   4.608 -0.7018 -0.1818 -0.2839
   49POPC  H14R 6509   2.333   1.492   4.645  0.0718  0.0459 -1.9131
   49POPC  H14S 6510   2.318   1.380   4.505  0.1479  0.0579 -0.0211
   49POPC  C215 6511   2.320   1.288   4.702 -0.2345 -0.2183 -0.5216
   49POPC  H15R 6512   2.248   1.204   4.715 -0.1555 -0.0173  1.3809
   49POPC  H15S 6513   2.330   1.340   4.800 -0.7530  1.6127 -1.4188
   49POPC  C216 6514   2.457   1.227   4.674  0.0421  0.2198 -0.1146
   49POPC  H16R 6515   2.524   1.316   4.674 -0.2531  0.4930 -3.0351
   49POPC  H16S 6516   2.460   1.193   4.569  0.9772 -1.7388  0.5236
   49POPC  C217 6517   2.504   1.111   4.762  0.8696  0.6614  0.0363
   49POPC  H17R 6518   2.460   1.014   4.731 -0.3327  0.7834  1.3177
   49POPC  H17S 6519   2.479   1.125   4.869 -2.9114 -2.5590 -0.3319
   49POPC  C218 6520   2.655   1.094   4.742  0.7106 -0.0013 -0.6410
   49POPC  H18R 6521   2.695   0.999   4.784  0.6275  0.2255 -0.0411
   49POPC  H18S 6522   2.715   1.179   4.783 -2.4570  2.3568 -0.7004
   49POPC  H18T 6523   2.685   1.099   4.635 -2.7326 -0.2549 -1.6772
   49POPC   C33 6524   2.451   0.827   5.383  0.1500  0.0458 -0.1022
   49POPC   H3X 6525   2.490   0.746   5.317 -2.0687 -0.5185 -0.7802
   49POPC   H3Y 6526   2.458   0.918   5.319  0.8130  1.3756  1.8201
   49POPC   C34 6527   2.303   0.801   5.415  0.1307  0.1782 -0.0846
   49POPC   H4X 6528   2.256   0.890   5.463 -0.2478  0.5461 -1.1314
   49POPC   H4Y 6529   2.286   0.722   5.491  0.3809 -1.4718 -1.7056
   49POPC   C35 6530   2.211   0.761   5.301 -0.0455 -0.1834  0.1869
   49POPC   H5X 6531   2.109   0.785   5.339 -1.2511 -3.3313 -0.8682
   49POPC   H5Y 6532   2.212   0.653   5.274  2.3969 -0.0048 -0.4896
   49POPC   C36 6533   2.239   0.839   5.173 -0.4430  0.3881  0.4464
   49POPC   H6X 6534   2.335   0.801   5.130 -0.2048 -0.7044  1.9226
   49POPC   H6Y 6535   2.243   0.946   5.202 -0.5441  1.1670 -2.2476
   49POPC   C37 6536   2.135   0.812   5.065  0.1852  0.2236 -0.1223
   49POPC   H7X 6537   2.037   0.844   5.106 -0.0458  1.4118 -1.5568
   49POPC   H7Y 6538   2.146   0.703   5.043  0.8693  0.5234 -1.2988
   49POPC   C38 6539   2.162   0.905   4.946 -0.2770  0.1287 -0.3051
   49POPC   H8X 6540   2.218   0.997   4.975 -0.8395  0.4875 -0.3596
   49POPC   H8Y 6541   2.065   0.939   4.906 -0.5921  3.8095  3.2747
   49POPC   C39 6542   2.264   0.840   4.853  0.2150 -0.0109  0.3213
   49POPC   H9X 6543   2.362   0.842   4.905  1.8523 -4.0686 -2.3553
   49POPC   H9Y 6544   2.272   0.891   4.754  1.5682  0.6798  0.7794
   49POPC  C310 6545   2.218   0.699   4.816 -1.0022  0.6039 -0.5330
   49POPC  H10X 6546   2.112   0.688   4.846  0.2997  1.3293  4.6713
   49POPC  H10Y 6547   2.281   0.621   4.863  1.8574  1.8694 -2.1203
   49POPC  C311 6548   2.247   0.678   4.667  0.0342 -0.4697 -0.1861
   49POPC  H11X 6549   2.288   0.575   4.660  1.6165  0.2691 -2.6609
   49POPC  H11Y 6550   2.333   0.743   4.638 -1.1081  0.8818 -0.6298
   49POPC  C312 6551   2.121   0.696   4.582 -0.5221  0.2088  0.7799
   49POPC  H12X 6552   2.031   0.640   4.616  0.1377 -1.7377 -0.6238
   49POPC  H12Y 6553   2.138   0.655   4.480  0.0426 -0.2022  1.0344
   49POPC  C313 6554   2.087   0.843   4.556  0.1320  0.2414  0.1000
   49POPC  H13X 6555   2.173   0.902   4.517  0.9886 -1.2148 -0.2414
   49POPC  H13Y 6556   2.061   0.872   4.660  0.1743 -0.1709  0.2250
   49POPC  C314 6557   1.972   0.862   4.456 -0.2194  0.2930  0.5098
   49POPC  H14X 6558   1.888   0.813   4.508  0.8436 -0.7047  1.3199
   49POPC  H14Y 6559   1.995   0.820   4.355  1.5308 -1.0991  1.4513
   49POPC  C315 6560   1.927   1.008   4.442  0.1909  0.4076  0.3472
   49POPC  H15X 6561   1.829   1.032   4.396 -0.4887 -2.2950  0.3010
   49POPC  H15Y 6562   2.003   1.055   4.376 -0.3936 -0.8433 -1.2575
   49POPC  C316 6563   1.915   1.083   4.575  0.0007  0.4428  0.3106
   49POPC  H16X 6564   1.901   1.190   4.548 -1.3339 -0.2747 -2.0431
   49POPC  H16Y 6565   2.001   1.065   4.643  1.1421 -2.3147 -1.7603
   49POPC  H16Z 6566   1.821   1.054   4.625 -0.9045 -0.8977 -2.0670
   50POPC     N 6567   6.780   5.726   6.332  0.4152  0.4495  0.0370
   50POPC   C12 6568   6.721   5.680   6.201  0.2429 -0.4432  0.4289
   50POPC  H12A 6572   6.782   5.600   6.161  0.3195  1.1344 -2.7360
   50POPC  H12B 6573   6.725   5.770   6.142  0.6527 -0.7590 -0.0321
   50POPC   C13 6569   6.735   5.640   6.447  0.0721 -0.0440 -0.4626
   50POPC  H13A 6574   6.627   5.642   6.459  0.2946 -1.4226  2.1720
   50POPC  H13B 6575   6.764   5.538   6.429  0.9817 -0.2453  1.8911
   50POPC  H13C 6576   6.774   5.676   6.541  0.1263 -0.1980 -0.4276
   50POPC   C14 6570   6.930   5.743   6.324  0.3611  0.4212 -1.0913
   50POPC  H14A 6577   6.974   5.648   6.299 -1.5984 -1.3641  1.8945
   50POPC  H14B 6578   6.959   5.820   6.254 -0.9961  1.1719 -0.8497
   50POPC  H14C 6579   6.974   5.765   6.420 -1.9846  0.6552 -0.0390
   50POPC   C15 6571   6.728   5.864   6.366  0.5591  0.5990 -0.3418
   50POPC  H15A 6580   6.620   5.860   6.356  0.2511 -0.8211  2.8117
   50POPC  H15B 6581   6.771   5.943   6.306 -0.9128  1.0224 -0.8666
   50POPC  H15C 6582   6.751   5.898   6.466  1.6001  0.0275 -0.3781
   50POPC   C11 6583   6.577   5.627   6.194 -0.0302  0.3886 -0.4964
   50POPC  H11A 6584   6.566   5.530   6.249  0.8559  1.5415  1.7713
   50POPC  H11B 6585   6.548   5.612   6.088  1.1528 -3.9766 -0.3310
   50POPC     P 6586   6.333   5.689   6.222  0.1577 -0.0567 -0.0928
   50POPC   O13 6587   6.269   5.817   6.259  0.1461 -0.2188  0.4501
   50POPC   O14 6588   6.282   5.564   6.283  0.1909  0.1287  0.3162
   50POPC   O12 6589   6.487   5.722   6.251  0.0563 -0.1462  0.5607
   50POPC   O11 6590   6.329   5.670   6.063 -0.0592 -0.2857 -0.0611
   50POPC    C1 6591   6.376   5.782   5.988 -0.2758 -0.5334 -0.5649
   50POPC    HA 6592   6.463   5.750   5.927  0.5271 -2.7205  1.6777
   50POPC    HB 6593   6.415   5.864   6.052  1.4124 -0.9501 -1.0447
   50POPC    C2 6594   6.264   5.837   5.897 -0.2363  0.4300 -0.0339
   50POPC    HS 6595   6.175   5.856   5.961 -0.2294 -1.2298  0.4863
   50POPC   O21 6596   6.223   5.736   5.805  0.4231  0.5201 -0.4311
   50POPC   C21 6597   6.103   5.762   5.752  0.1104  0.0504  0.0386
   50POPC   O22 6598   6.035   5.856   5.789 -0.1156 -0.4143  0.8205
   50POPC   C22 6599   6.067   5.673   5.634  0.4339  0.7152 -0.5666
   50POPC   H2R 6600   6.100   5.571   5.663 -0.5234  0.1081 -1.5856
   50POPC   H2S 6601   6.137   5.703   5.553  1.5400  2.8728  1.1484
   50POPC    C3 6602   6.315   5.965   5.827 -0.1589  0.3031 -0.2096
   50POPC    HX 6603   6.369   6.018   5.908  1.7966 -1.4116 -0.3277
   50POPC    HY 6604   6.239   6.022   5.770  0.9054  0.7130 -1.2351
   50POPC   O31 6605   6.420   5.935   5.734  0.2639  0.5193  0.1936
   50POPC   C31 6606   6.506   6.034   5.710  0.4798  0.2322 -0.2174
   50POPC   O32 6607   6.516   6.142   5.767  0.2471  0.2905 -0.2858
   50POPC   C32 6608   6.599   5.984   5.600  0.1313 -0.2267 -0.3078
   50POPC   H2X 6609   6.608   5.874   5.598  0.5243 -0.1974 -0.1589
   50POPC   H2Y 6610   6.693   6.042   5.608 -0.2284  0.7218 -2.6045
   50POPC   C23 6611   5.921   5.696   5.594 -0.0735  0.2582  0.9772
   50POPC   H3R 6612   5.914   5.640   5.498  2.3696  0.5819  0.5603
   50POPC   H3S 6613   5.899   5.804   5.594 -1.3075  0.0060  1.8031
   50POPC   C24 6614   5.831   5.620   5.692 -0.0012 -0.5054  0.4648
   50POPC   H4R 6615   5.857   5.640   5.799 -2.5925 -1.8459  1.3745
   50POPC   H4S 6616   5.864   5.515   5.682  0.1213 -0.3512 -0.8321
   50POPC   C25 6617   5.681   5.645   5.682  0.0979 -0.2558 -0.4967
   50POPC   H5R 6618   5.655   5.744   5.726 -0.8899 -0.8303  0.2588
   50POPC   H5S 6619   5.644   5.571   5.757 -0.2625  0.1306 -0.2931
   50POPC   C26 6620   5.628   5.602   5.545  0.1815 -0.0559 -0.5928
   50POPC   H6R 6621   5.692   5.647   5.467  0.0440  1.3958  0.1178
   50POPC   H6S 6622   5.526   5.641   5.526 -0.2834  0.0791  1.9385
   50POPC   C27 6623   5.619   5.451   5.522 -0.5150 -0.0805 -0.1884
   50POPC   H7R 6624   5.555   5.413   5.604 -0.4327  2.1574  0.9498
   50POPC   H7S 6625   5.721   5.414   5.548  0.2701  1.6967 -0.6690
   50POPC   C28 6626   5.565   5.407   5.386  0.1752  0.2519 -0.5718
   50POPC   H8R 6627   5.629   5.431   5.298  0.1562 -2.9801 -1.5149
   50POPC   H8S 6628   5.466   5.453   5.366 -0.1427 -0.1425  0.0958
   50POPC   C29 6629   5.540   5.260   5.401  0.3340  0.2885  0.0925
   50POPC   H91 6630   5.485   5.231   5.491  0.7540  0.4442  0.3967
   50POPC  C210 6631   5.569   5.163   5.313  0.1476  0.4516 -0.1540
   50POPC  H101 6632   5.553   5.059   5.347  1.1737  0.2329 -0.3157
   50POPC  C211 6633   5.657   5.169   5.191  0.5654 -0.0869  0.1171
   50POPC  H11R 6634   5.756   5.123   5.211  0.9944 -0.1443 -2.1005
   50POPC  H11S 6635   5.671   5.274   5.161  1.6157  0.1158  1.2864
   50POPC  C212 6636   5.602   5.082   5.077  0.0085  0.5982 -0.1433
   50POPC  H12R 6637   5.497   5.112   5.058 -1.0079 -1.0814  2.5169
   50POPC  H12S 6638   5.598   4.976   5.111 -3.1801  0.3436 -1.2184
   50POPC  C213 6639   5.678   5.080   4.944  0.1934 -0.0362 -0.0287
   50POPC  H13R 6640   5.774   5.025   4.953  0.4209  0.4851  0.7395
   50POPC  H13S 6641   5.696   5.181   4.903  0.5204  0.8438  2.2048
   50POPC  C214 6642   5.593   5.033   4.826  0.2923  0.3189 -0.2437
   50POPC  H14R 6643   5.504   5.100   4.822  0.8553  1.1228  0.6159
   50POPC  H14S 6644   5.549   4.933   4.850 -1.2774  0.1997 -3.3858
   50POPC  C215 6645   5.658   5.010   4.689  0.2386 -0.7959 -0.0902
   50POPC  H15R 6646   5.746   4.945   4.704  0.4566 -0.4399  0.1775
   50POPC  H15S 6647   5.698   5.106   4.649 -1.5126 -0.1667 -0.3778
   50POPC  C216 6648   5.569   4.940   4.587 -0.5133 -0.2522  0.1833
   50POPC  H16R 6649   5.465   4.981   4.591  0.1209  1.3961  0.1028
   50POPC  H16S 6650   5.575   4.831   4.610 -0.0940 -0.1372  0.6053
   50POPC  C217 6651   5.609   4.948   4.439  0.1463 -0.9461  0.3181
   50POPC  H17R 6652   5.610   5.054   4.404 -0.8642 -1.0695 -0.1221
   50POPC  H17S 6653   5.539   4.880   4.386  1.5273 -0.8044 -1.7070
   50POPC  C218 6654   5.752   4.895   4.438  0.5957  0.2290  0.4271
   50POPC  H18R 6655   5.827   4.960   4.487  1.2355  0.7916 -1.2733
   50POPC  H18S 6656   5.786   4.858   4.339 -0.5592 -0.9240  0.4457
   50POPC  H18T 6657   5.762   4.795   4.486 -0.7268  0.0646  0.4044
   50POPC   C33 6658   6.528   6.036   5.475 -0.8599 -0.4796  0.1447
   50POPC   H3X 6659   6.490   6.139   5.491  0.0613  0.1016 -1.3141
   50POPC   H3Y 6660   6.439   5.972   5.454 -0.1841 -1.5072  0.3658
   50POPC   C34 6661   6.618   6.019   5.352 -0.8731  0.2844  0.0268
   50POPC   H4X 6662   6.657   5.916   5.366  0.7314  0.6916 -1.3561
   50POPC   H4Y 6663   6.689   6.103   5.343  1.4200 -1.6915 -0.7417
   50POPC   C35 6664   6.555   6.023   5.213 -0.5500  0.4384 -0.1169
   50POPC   H5X 6665   6.531   6.131   5.206  1.7595  0.9570 -0.1739
   50POPC   H5Y 6666   6.460   5.968   5.197 -0.9674  1.3877 -0.9451
   50POPC   C36 6667   6.657   5.981   5.107 -0.1105  0.4733  0.2922
   50POPC   H6X 6668   6.658   5.873   5.084  0.2972  0.1606  1.7031
   50POPC   H6Y 6669   6.758   6.007   5.146 -0.0191  0.8417 -0.1751
   50POPC   C37 6670   6.646   6.069   4.982  0.0047  0.4566  0.2686
   50POPC   H7X 6671   6.617   6.172   5.014  0.8098  1.0467 -0.8887
   50POPC   H7Y 6672   6.566   6.027   4.917  2.2856 -1.4501 -1.3560
   50POPC   C38 6673   6.780   6.083   4.911  0.0124  0.8086  0.3472
   50POPC   H8X 6674   6.818   5.979   4.905 -2.2086  0.0198 -0.5938
   50POPC   H8Y 6675   6.849   6.163   4.945  1.2051  0.1052 -0.3835
   50POPC   C39 6676   6.768   6.109   4.760  0.7916 -0.3230  0.0859
   50POPC   H9X 6677   6.687   6.039   4.731 -0.7878  0.6355  2.0635
   50POPC   H9Y 6678   6.864   6.072   4.718  0.8642 -2.0403  1.6921
   50POPC  C310 6679   6.750   6.257   4.728  0.5910 -0.4270 -0.2827
   50POPC  H10X 6680   6.845   6.314   4.737  1.2251 -1.5021 -0.0717
   50POPC  H10Y 6681   6.677   6.297   4.802 -0.7394 -1.2113 -1.1463
   50POPC  C311 6682   6.700   6.286   4.586 -0.3849  0.1082  0.1637
   50POPC  H11X 6683   6.624   6.214   4.551 -0.9454  1.0778 -0.6458
   50POPC  H11Y 6684   6.773   6.285   4.503 -0.6299  0.3292 -0.0547
   50POPC  C312 6685   6.644   6.428   4.580 -0.3106  0.1408  0.2108
   50POPC  H12X 6686   6.728   6.499   4.598 -1.6059  1.3366  1.6387
   50POPC  H12Y 6687   6.565   6.440   4.657 -0.3945  1.4915 -0.0634
   50POPC  C313 6688   6.591   6.450   4.438 -0.4008 -0.6724  0.1168
   50POPC  H13X 6689   6.509   6.381   4.409 -0.1828 -0.1862 -1.7256
   50POPC  H13Y 6690   6.665   6.424   4.359  0.3379 -1.0581  0.9267
   50POPC  C314 6691   6.546   6.594   4.412  0.2798 -0.5000 -0.1086
   50POPC  H14X 6692   6.611   6.662   4.472  0.5601  0.6123 -1.6327
   50POPC  H14Y 6693   6.445   6.612   4.454  1.6997  0.4667  3.0803
   50POPC  C315 6694   6.555   6.640   4.266  1.0574  0.1044  0.1280
   50POPC  H15X 6695   6.481   6.574   4.217  0.9649 -0.3234  0.8349
   50POPC  H15Y 6696   6.655   6.623   4.221  0.3439  1.3535 -1.9955
   50POPC  C316 6697   6.515   6.787   4.252 -0.6335 -0.3222  0.3610
   50POPC  H16X 6698   6.547   6.840   4.159 -0.6563  0.9487  1.0660
   50POPC  H16Y 6699   6.565   6.842   4.335 -0.1464  1.0096 -0.7821
   50POPC  H16Z 6700   6.407   6.805   4.268 -0.4495 -1.0293  2.5131
   51POPC     N 6701   5.428   6.106   6.350  0.3629 -0.1785  0.1985
   51POPC   C12 6702   5.447   6.022   6.226  0.0011 -0.0787  0.0746
   51POPC  H12A 6706   5.349   5.997   6.189  0.7512 -1.2186 -1.2099
   51POPC  H12B 6707   5.496   5.930   6.255  0.1134 -0.1768 -0.4148
   51POPC   C13 6703   5.550   6.102   6.438  0.2403  0.1084  0.3810
   51POPC  H13A 6708   5.544   6.173   6.520 -0.7304 -0.2173  0.5969
   51POPC  H13B 6709   5.576   6.007   6.483  0.5595  0.3875  0.8016
   51POPC  H13C 6710   5.641   6.140   6.393  2.3685 -5.4279 -0.3442
   51POPC   C14 6704   5.392   6.250   6.322  0.2050 -0.2452  0.0619
   51POPC  H14A 6711   5.491   6.289   6.301  0.9354 -2.6789 -1.2894
   51POPC  H14B 6712   5.332   6.260   6.233  1.7472 -1.3467 -1.1538
   51POPC  H14C 6713   5.345   6.296   6.407  1.2885 -1.9254  1.6051
   51POPC   C15 6705   5.316   6.048   6.434  0.0368  0.6274  0.3234
   51POPC  H15A 6714   5.230   6.032   6.369 -1.6286 -1.0000  2.8574
   51POPC  H15B 6715   5.297   6.130   6.501 -0.6799  2.0222 -1.5191
   51POPC  H15C 6716   5.361   5.965   6.486 -2.1665  0.3472  1.8416
   51POPC   C11 6717   5.535   6.075   6.112 -0.2878  0.4689  0.1034
   51POPC  H11A 6718   5.488   6.163   6.064 -0.9339 -0.3238 -0.7350
   51POPC  H11B 6719   5.564   6.001   6.034  0.7493  1.7163 -0.7088
   51POPC     P 6720   5.745   6.216   6.089 -0.2865 -0.2857 -0.3212
   51POPC   O13 6721   5.885   6.178   6.116 -0.3442 -0.4037 -0.1799
   51POPC   O14 6722   5.705   6.356   6.113  0.0336 -0.3099  0.3693
   51POPC   O12 6723   5.651   6.123   6.180 -0.1048 -0.0185  0.1381
   51POPC   O11 6724   5.716   6.183   5.935  0.0269  0.2004 -0.4846
   51POPC    C1 6725   5.832   6.166   5.852  0.3594 -0.1729  0.0470
   51POPC    HA 6726   5.809   6.149   5.745 -3.2786  2.3977  0.3154
   51POPC    HB 6727   5.906   6.095   5.894  0.3783  0.2799  0.7939
   51POPC    C2 6728   5.907   6.298   5.828  0.0213  0.0975  0.4731
   51POPC    HS 6729   5.935   6.332   5.930  2.2413 -0.2836 -0.0014
   51POPC   O21 6730   5.816   6.385   5.759 -0.0887 -0.1291  0.3327
   51POPC   C21 6731   5.837   6.516   5.759 -0.2453 -0.1056 -0.5163
   51POPC   O22 6732   5.940   6.567   5.800 -0.3193 -0.2141 -0.1999
   51POPC   C22 6733   5.714   6.589   5.706 -0.3535  0.1980  0.1461
   51POPC   H2R 6734   5.724   6.699   5.716  0.9115  0.4936 -3.5708
   51POPC   H2S 6735   5.620   6.553   5.753  0.9440 -1.4064  1.5321
   51POPC    C3 6736   6.033   6.269   5.746  0.0221  0.3120  0.3987
   51POPC    HX 6737   6.097   6.200   5.805  0.8997  0.6956 -0.0936
   51POPC    HY 6738   6.092   6.362   5.729 -0.1908  0.2860 -0.5616
   51POPC   O31 6739   6.007   6.213   5.617  0.4717 -0.2781  0.5639
   51POPC   C31 6740   6.114   6.176   5.546 -0.0047 -0.6227  0.0170
   51POPC   O32 6741   6.232   6.198   5.572 -0.3444  0.8267  0.3614
   51POPC   C32 6742   6.052   6.123   5.418 -0.5472  0.0416  0.0061
   51POPC   H2X 6743   6.040   6.206   5.345  0.2718  0.5043  0.3942
   51POPC   H2Y 6744   5.957   6.068   5.438  1.2843 -2.5046  1.9056
   51POPC   C23 6745   5.694   6.559   5.557 -0.9674 -0.6075  0.3880
   51POPC   H3R 6746   5.675   6.451   5.539  0.5172 -0.7169 -0.6561
   51POPC   H3S 6747   5.778   6.589   5.491 -2.4621  2.8547 -0.0302
   51POPC   C24 6748   5.570   6.635   5.510 -0.4757  0.0811  0.1958
   51POPC   H4R 6749   5.567   6.743   5.536 -1.8185 -0.0039  0.4016
   51POPC   H4S 6750   5.477   6.588   5.548 -0.7451  0.3407 -0.1445
   51POPC   C25 6751   5.561   6.619   5.358 -0.1579  0.6015  0.1200
   51POPC   H5R 6752   5.456   6.634   5.325  0.2534 -3.0961 -3.3599
   51POPC   H5S 6753   5.570   6.509   5.346 -1.7396  0.4783  0.0665
   51POPC   C26 6754   5.662   6.708   5.285 -0.0375  0.3033 -0.0792
   51POPC   H6R 6755   5.761   6.659   5.285 -1.0009 -1.6871 -0.4974
   51POPC   H6S 6756   5.673   6.808   5.333  0.4806 -0.0486  0.5385
   51POPC   C27 6757   5.627   6.722   5.137  0.2954 -0.4432 -0.2278
   51POPC   H7R 6758   5.569   6.631   5.111  0.5202 -1.0166  1.2744
   51POPC   H7S 6759   5.729   6.716   5.092 -0.4181 -2.0745 -1.7094
   51POPC   C28 6760   5.538   6.843   5.108  0.1197 -0.4738  0.1896
   51POPC   H8R 6761   5.584   6.933   5.154 -4.0435  1.0439  1.6359
   51POPC   H8S 6762   5.439   6.835   5.158 -0.5169 -0.3448 -1.0423
   51POPC   C29 6763   5.498   6.869   4.966 -0.4337  0.3429  0.4938
   51POPC   H91 6764   5.488   6.780   4.903  0.6158  0.1777  0.5565
   51POPC  C210 6765   5.459   6.990   4.922 -0.1090  0.3843  0.3138
   51POPC  H101 6766   5.432   7.008   4.817  1.4099  0.3267 -0.1054
   51POPC  C211 6767   5.452   7.111   5.010 -0.1591 -0.0563  0.9218
   51POPC  H11R 6768   5.468   7.087   5.117  1.1952  0.9151  0.9591
   51POPC  H11S 6769   5.349   7.150   5.024 -0.8606 -2.7068  3.5443
   51POPC  C212 6770   5.547   7.217   4.954 -0.0501 -0.2783  0.6861
   51POPC  H12R 6771   5.511   7.236   4.851  0.6914 -0.8776  0.3069
   51POPC  H12S 6772   5.649   7.175   4.945  0.4881  1.4612 -1.8857
   51POPC  C213 6773   5.548   7.338   5.048 -0.3529 -0.1156  0.4808
   51POPC  H13R 6774   5.597   7.304   5.141 -1.4049 -0.6957  0.8180
   51POPC  H13S 6775   5.447   7.368   5.081 -0.7491 -0.4759 -0.3732
   51POPC  C214 6776   5.640   7.446   4.989 -0.0824 -0.5747  0.0513
   51POPC  H14R 6777   5.739   7.399   4.976 -0.7486 -2.4929  1.6153
   51POPC  H14S 6778   5.649   7.533   5.059  3.2072  0.5679 -1.6964
   51POPC  C215 6779   5.593   7.499   4.854 -0.3430 -0.3756  0.2175
   51POPC  H15R 6780   5.485   7.524   4.858 -0.4448 -0.9497  1.1553
   51POPC  H15S 6781   5.602   7.417   4.780 -3.3120 -2.3201  1.9031
   51POPC  C216 6782   5.672   7.618   4.799 -0.2948 -0.4445  0.1406
   51POPC  H16R 6783   5.780   7.593   4.785  0.0820  1.8825 -1.4325
   51POPC  H16S 6784   5.661   7.705   4.867  1.9272  0.8284 -1.0471
   51POPC  C217 6785   5.609   7.663   4.667 -0.0390 -0.2683  0.0782
   51POPC  H17R 6786   5.515   7.712   4.699 -1.6975 -2.4444 -1.3637
   51POPC  H17S 6787   5.595   7.579   4.596  1.9586  1.7683 -2.8253
   51POPC  C218 6788   5.689   7.778   4.606  0.1845  0.1808  1.2075
   51POPC  H18R 6789   5.691   7.878   4.655  0.1294  0.5887  0.3900
   51POPC  H18S 6790   5.654   7.789   4.502  2.8751 -1.5272  0.0619
   51POPC  H18T 6791   5.798   7.754   4.602  0.2316  0.6698 -1.3374
   51POPC   C33 6792   6.159   6.034   5.356 -0.3786  0.0417  0.3024
   51POPC   H3X 6793   6.191   5.955   5.427  0.8633 -0.0217 -0.3060
   51POPC   H3Y 6794   6.246   6.101   5.338  1.0385 -1.6254  0.7877
   51POPC   C34 6795   6.118   5.954   5.233  0.4589  0.1479 -0.0486
   51POPC   H4X 6796   6.202   5.883   5.214 -0.6810 -2.1485  3.0311
   51POPC   H4Y 6797   6.109   6.024   5.147 -0.8209  0.6948  0.5311
   51POPC   C35 6798   5.999   5.862   5.262 -0.0356  0.7100 -0.2934
   51POPC   H5X 6799   5.909   5.919   5.292 -1.0908 -1.0748 -0.0049
   51POPC   H5Y 6800   6.020   5.809   5.357  1.0794 -1.7928 -1.8798
   51POPC   C36 6801   5.955   5.776   5.143  0.2161 -0.3338  0.3593
   51POPC   H6X 6802   6.015   5.688   5.115 -1.6173 -1.4411 -0.1668
   51POPC   H6Y 6803   5.970   5.840   5.053  3.7733  1.6349  2.2585
   51POPC   C37 6804   5.809   5.735   5.162  0.1264 -0.1281  0.1274
   51POPC   H7X 6805   5.739   5.820   5.147  0.9442  0.9827  2.2935
   51POPC   H7Y 6806   5.802   5.700   5.268  4.0249  1.9409  1.1672
   51POPC   C38 6807   5.762   5.637   5.055  0.0764 -0.3710  0.3709
   51POPC   H8X 6808   5.664   5.591   5.080 -1.2274  2.5238  0.8336
   51POPC   H8Y 6809   5.833   5.552   5.050 -0.3120 -0.6723 -0.1195
   51POPC   C39 6810   5.757   5.710   4.921  0.2184 -0.6486  0.2151
   51POPC   H9X 6811   5.852   5.764   4.898 -1.8094  2.9574  0.0262
   51POPC   H9Y 6812   5.673   5.782   4.919 -0.4953 -1.4905 -0.6593
   51POPC  C310 6813   5.734   5.608   4.809 -0.1151 -0.6530  0.2896
   51POPC  H10X 6814   5.665   5.530   4.846 -1.9828  0.0816 -1.5317
   51POPC  H10Y 6815   5.827   5.551   4.789  0.4121 -0.2815  1.6091
   51POPC  C311 6816   5.671   5.669   4.683  0.4924 -0.5755  0.0249
   51POPC  H11X 6817   5.742   5.657   4.598 -0.8906 -3.2339 -0.7939
   51POPC  H11Y 6818   5.659   5.779   4.693 -2.3292 -0.7545 -0.9827
   51POPC  C312 6819   5.543   5.596   4.644  0.0430 -0.1084  0.6078
   51POPC  H12X 6820   5.482   5.667   4.583 -0.4583 -0.3903  0.7766
   51POPC  H12Y 6821   5.486   5.562   4.733 -0.6396 -1.9835 -0.5201
   51POPC  C313 6822   5.556   5.473   4.554 -0.0880  0.5026 -0.2610
   51POPC  H13X 6823   5.623   5.401   4.605 -2.1751 -0.7285  0.8344
   51POPC  H13Y 6824   5.605   5.499   4.458  2.3752  0.2059  0.8736
   51POPC  C314 6825   5.419   5.410   4.530 -0.0879  0.0973  0.7822
   51POPC  H14X 6826   5.360   5.473   4.460  1.3909 -1.0231 -1.5091
   51POPC  H14Y 6827   5.356   5.409   4.622  0.8647  3.3315  1.5236
   51POPC  C315 6828   5.427   5.264   4.483 -0.3166  0.2626  0.2294
   51POPC  H15X 6829   5.494   5.208   4.551 -0.3160 -1.0846 -0.8700
   51POPC  H15Y 6830   5.480   5.263   4.385  0.9845  1.8183  0.8731
   51POPC  C316 6831   5.293   5.194   4.465 -0.1621  0.1785 -0.6255
   51POPC  H16X 6832   5.235   5.259   4.395 -1.6675 -1.2969 -0.7653
   51POPC  H16Y 6833   5.235   5.173   4.557 -0.3269  0.4476 -0.6664
   51POPC  H16Z 6834   5.298   5.097   4.411 -1.5021 -0.6167  0.6398
   52POPC     N 6835   7.266   6.489   6.207  0.4816 -0.0118 -0.1122
   52POPC   C12 6836   7.159   6.579   6.266 -0.2430 -0.7708 -0.2509
   52POPC  H12A 6840   7.211   6.665   6.306 -1.1459 -0.7467  0.9024
   52POPC  H12B 6841   7.112   6.521   6.344 -1.5538  0.1311 -0.3584
   52POPC   C13 6837   7.200   6.358   6.171  0.4464 -0.1093  0.2998
   52POPC  H13A 6842   7.251   6.298   6.097 -3.4425 -1.5795 -1.3117
   52POPC  H13B 6843   7.166   6.291   6.249 -1.3151 -0.6750 -0.9393
   52POPC  H13C 6844   7.109   6.378   6.116  0.6881  1.8828  0.6019
   52POPC   C14 6838   7.325   6.552   6.083 -0.0417  0.0373 -0.3399
   52POPC  H14A 6845   7.399   6.624   6.114  0.3745 -0.3219 -0.4992
   52POPC  H14B 6846   7.384   6.477   6.031  0.7836  0.2025  0.3582
   52POPC  H14C 6847   7.254   6.601   6.018 -2.1279 -2.3149  0.0849
   52POPC   C15 6839   7.372   6.470   6.313 -0.0670  0.0330  0.4504
   52POPC  H15A 6848   7.424   6.562   6.333  0.9815 -0.3379 -0.4698
   52POPC  H15B 6849   7.436   6.402   6.258 -3.0704 -2.1281 -0.5231
   52POPC  H15C 6850   7.326   6.437   6.405 -1.5885 -2.9097 -1.2635
   52POPC   C11 6851   7.050   6.634   6.174 -0.0529  0.3491  0.1793
   52POPC  H11A 6852   7.097   6.712   6.112 -0.4725 -1.4367 -2.4731
   52POPC  H11B 6853   6.978   6.681   6.245  2.2094 -0.7258  3.2740
   52POPC     P 6854   6.880   6.589   5.989  0.1280  0.1888 -0.0538
   52POPC   O13 6855   6.944   6.684   5.895  0.3272  0.6314  0.5292
   52POPC   O14 6856   6.755   6.630   6.057 -0.1121  0.0610 -0.4135
   52POPC   O12 6857   6.989   6.533   6.092  0.1268  0.3552  0.0370
   52POPC   O11 6858   6.848   6.455   5.907 -0.5372  0.1071  0.3393
   52POPC    C1 6859   6.952   6.385   5.838 -0.1579  0.5280  0.4786
   52POPC    HA 6860   6.930   6.276   5.829 -0.3772  0.7251 -1.5996
   52POPC    HB 6861   7.044   6.388   5.900  0.5279  0.3302 -0.5248
   52POPC    C2 6862   6.995   6.451   5.706  0.0257  0.3388  0.4462
   52POPC    HS 6863   7.048   6.547   5.721 -0.8338  0.7565  0.7796
   52POPC   O21 6864   6.874   6.461   5.631  0.2734  0.1066  0.0111
   52POPC   C21 6865   6.848   6.582   5.580 -0.3333  0.0848  0.2710
   52POPC   O22 6866   6.923   6.678   5.584 -0.0018 -0.1565 -0.1066
   52POPC   C22 6867   6.721   6.568   5.497 -0.2396  0.2481  0.0987
   52POPC   H2R 6868   6.719   6.642   5.414 -1.5839 -1.2780 -1.2463
   52POPC   H2S 6869   6.631   6.600   5.554  1.2093  5.4354 -0.2546
   52POPC    C3 6870   7.094   6.363   5.627 -0.3345  0.1118  0.2486
   52POPC    HX 6871   7.048   6.262   5.615 -1.1112  0.3676  1.0229
   52POPC    HY 6872   7.187   6.342   5.683 -0.6405 -1.0202  0.3655
   52POPC   O31 6873   7.117   6.408   5.493  0.2569  0.0876  0.3432
   52POPC   C31 6874   7.209   6.504   5.492  0.4165 -0.0704 -0.2609
   52POPC   O32 6875   7.257   6.557   5.591 -0.1577 -0.0982  0.0286
   52POPC   C32 6876   7.245   6.550   5.351  0.1996  0.0575 -0.2742
   52POPC   H2X 6877   7.174   6.622   5.305  0.7268  0.2949 -0.7233
   52POPC   H2Y 6878   7.247   6.461   5.284  0.0907 -0.9837  1.0833
   52POPC   C23 6879   6.719   6.431   5.430  0.5319  0.3114 -0.0573
   52POPC   H3R 6880   6.691   6.346   5.496  1.3000  0.9371  1.0790
   52POPC   H3S 6881   6.824   6.404   5.405  1.1438  3.3629 -0.9827
   52POPC   C24 6882   6.645   6.441   5.296  0.1105  0.0982  0.1587
   52POPC   H4R 6883   6.624   6.545   5.266  0.0660 -0.3861 -1.5314
   52POPC   H4S 6884   6.555   6.376   5.284  1.5841 -2.0869  0.5904
   52POPC   C25 6885   6.719   6.390   5.173  0.0281 -0.1345  0.2044
   52POPC   H5R 6886   6.649   6.390   5.087  2.6665 -1.7656 -2.0377
   52POPC   H5S 6887   6.764   6.289   5.185 -0.3117 -0.1513  1.3137
   52POPC   C26 6888   6.845   6.469   5.135 -0.2700 -0.0388 -0.5950
   52POPC   H6R 6889   6.907   6.502   5.221  1.8725 -1.8247 -1.4113
   52POPC   H6S 6890   6.809   6.558   5.079 -2.5815 -1.6758 -1.8143
   52POPC   C27 6891   6.934   6.402   5.030  0.0676 -0.2164 -0.1953
   52POPC   H7R 6892   6.863   6.371   4.951 -0.4683  0.9028 -0.1574
   52POPC   H7S 6893   6.973   6.308   5.076 -1.3645 -1.5098 -1.5630
   52POPC   C28 6894   7.049   6.479   4.964 -0.2366  0.3177 -0.1039
   52POPC   H8R 6895   7.113   6.515   5.047 -2.0034  0.8737  1.0400
   52POPC   H8S 6896   7.032   6.561   4.892  1.0134  0.0937 -0.6666
   52POPC   C29 6897   7.124   6.376   4.884  0.3771  0.6088  0.0912
   52POPC   H91 6898   7.167   6.288   4.933  1.4892  0.8108 -0.4914
   52POPC  C210 6899   7.155   6.393   4.755  0.2390  0.2001  0.0054
   52POPC  H101 6900   7.199   6.308   4.699  0.2227  1.9260 -2.7008
   52POPC  C211 6901   7.110   6.494   4.653  0.1787  0.1606 -0.0076
   52POPC  H11R 6902   7.177   6.582   4.653  3.0925 -1.9510  1.5729
   52POPC  H11S 6903   7.006   6.521   4.683  0.0122 -0.5003  0.0166
   52POPC  C212 6904   7.121   6.428   4.516  0.4697  0.2365 -0.0202
   52POPC  H12R 6905   7.040   6.352   4.509  0.4724  0.3819 -2.0962
   52POPC  H12S 6906   7.217   6.371   4.508 -0.8819 -2.2179  0.5440
   52POPC  C213 6907   7.093   6.524   4.400  0.3196  0.4064  0.1578
   52POPC  H13R 6908   7.164   6.609   4.400  0.8173 -0.0010  0.4415
   52POPC  H13S 6909   6.996   6.561   4.438 -1.4049 -0.8693 -2.8105
   52POPC  C214 6910   7.096   6.456   4.263  0.5285 -0.2202  0.4666
   52POPC  H14R 6911   7.034   6.365   4.276 -1.0940  0.5141 -1.7832
   52POPC  H14S 6912   7.201   6.420   4.249  0.3697 -0.3688 -0.3953
   52POPC  C215 6913   7.044   6.547   4.151 -0.2166 -0.5503  0.5499
   52POPC  H15R 6914   6.944   6.576   4.189 -0.2746  3.1713 -2.2152
   52POPC  H15S 6915   7.040   6.482   4.061 -0.3602  2.5315 -1.7426
   52POPC  C216 6916   7.123   6.673   4.115  0.1189 -1.0014 -0.3130
   52POPC  H16R 6917   7.195   6.699   4.194  0.3069 -0.6331 -0.6071
   52POPC  H16S 6918   7.040   6.747   4.114 -0.9761 -2.2091 -1.3697
   52POPC  C217 6919   7.212   6.676   3.991  0.2391  0.6183 -0.1940
   52POPC  H17R 6920   7.290   6.598   4.004  0.1483  0.8278  1.7827
   52POPC  H17S 6921   7.253   6.779   3.991  1.0502  0.3011  0.2773
   52POPC  C218 6922   7.137   6.649   3.861  0.2319  0.0829 -0.0814
   52POPC  H18R 6923   7.045   6.712   3.860  1.2496  1.6194  0.1677
   52POPC  H18S 6924   7.115   6.541   3.857  0.8465 -0.0400 -0.2781
   52POPC  H18T 6925   7.194   6.678   3.769 -0.8453  0.9504 -0.4842
   52POPC   C33 6926   7.379   6.623   5.364  0.0306  0.2614  0.3625
   52POPC   H3X 6927   7.457   6.572   5.424  0.7985  0.2464 -0.6377
   52POPC   H3Y 6928   7.364   6.723   5.411  0.3308  1.3184 -1.7182
   52POPC   C34 6929   7.452   6.650   5.232  0.2783 -0.5615  0.3299
   52POPC   H4X 6930   7.379   6.680   5.153  0.3460 -0.6312  0.2422
   52POPC   H4Y 6931   7.480   6.550   5.193  1.1139  0.6329 -2.2786
   52POPC   C35 6932   7.564   6.753   5.241 -0.2804  0.0783  0.0055
   52POPC   H5X 6933   7.655   6.732   5.302 -0.1455  1.3286  0.2632
   52POPC   H5Y 6934   7.513   6.840   5.287 -1.1805 -0.5993  0.2859
   52POPC   C36 6935   7.616   6.789   5.101  0.8456 -0.0206  0.3959
   52POPC   H6X 6936   7.690   6.872   5.104  0.0575  0.6968 -0.2130
   52POPC   H6Y 6937   7.535   6.837   5.043  0.8594  0.0844  0.4651
   52POPC   C37 6938   7.677   6.665   5.035  0.6565  0.1949 -0.1889
   52POPC   H7X 6939   7.593   6.592   5.029  0.9806 -0.2580  0.5735
   52POPC   H7Y 6940   7.757   6.615   5.094  0.1078 -1.0154 -0.4515
   52POPC   C38 6941   7.735   6.688   4.895  0.2226  0.1240 -0.3805
   52POPC   H8X 6942   7.827   6.749   4.911 -0.9257  1.7126  0.3655
   52POPC   H8Y 6943   7.673   6.754   4.831  1.2707  1.1460 -0.3709
   52POPC   C39 6944   7.767   6.566   4.808  0.4884 -0.1718  0.1250
   52POPC   H9X 6945   7.670   6.534   4.765 -0.3904  1.8727  0.4945
   52POPC   H9Y 6946   7.806   6.484   4.872  0.5978  0.0361  0.3257
   52POPC  C310 6947   7.870   6.604   4.702 -0.1504 -0.5104 -0.6192
   52POPC  H10X 6948   7.951   6.646   4.765  1.4004 -1.9739 -1.5978
   52POPC  H10Y 6949   7.821   6.685   4.643 -1.1107 -0.2598  0.5105
   52POPC  C311 6950   7.932   6.484   4.631  0.2455 -0.5166 -0.2635
   52POPC  H11X 6951   0.018   6.421   4.710  2.1454  1.0574 -0.0963
   52POPC  H11Y 6952   0.043   6.516   4.553 -1.4932 -2.1478 -2.6656
   52POPC  C312 6953   7.838   6.392   4.553 -0.4245  0.0160 -0.0760
   52POPC  H12X 6954   7.757   6.450   4.503 -0.7361 -0.8824 -0.6090
   52POPC  H12Y 6955   7.791   6.323   4.626  1.7753 -0.2230  1.1414
   52POPC  C313 6956   7.905   6.316   4.439  0.3038 -0.1727  0.4769
   52POPC  H13X 6957   0.032   6.265   4.482  1.6253  1.9431  0.4048
   52POPC  H13Y 6958   7.941   6.390   4.364  1.8887  1.0909  2.4250
   52POPC  C314 6959   7.816   6.208   4.378 -0.1494  0.3462  0.2133
   52POPC  H14X 6960   7.746   6.267   4.315 -2.0204 -2.6609 -0.6206
   52POPC  H14Y 6961   7.759   6.149   4.453 -1.2378 -0.8185 -1.4989
   52POPC  C315 6962   7.879   6.108   4.281  0.1581  0.5723  0.1774
   52POPC  H15X 6963   7.910   6.143   4.180 -0.0656 -0.7550 -0.3707
   52POPC  H15Y 6964   7.789   6.046   4.262  1.4927 -2.0795  2.0946
   52POPC  C316 6965   0.032   6.031   4.346 -0.0187  0.2054  0.1329
   52POPC  H16X 6966   0.086   5.973   4.268  2.1846  1.3934  0.7351
   52POPC  H16Y 6967   7.958   5.960   4.423 -0.8036 -0.3211 -0.6849
   52POPC  H16Z 6968   0.104   6.104   4.389 -1.2511  0.7857  1.2441
   53POPC     N 6969   5.778   1.245   6.435  0.1957  0.0697  0.1975
   53POPC   C12 6970   5.814   1.369   6.357  0.7360 -0.5326 -0.5150
   53POPC  H12A 6974   5.912   1.347   6.318  0.6077 -1.4835 -0.3248
   53POPC  H12B 6975   5.831   1.442   6.434 -1.2653 -3.6248  3.0288
   53POPC   C13 6971   5.880   1.207   6.540  0.4652 -0.5063 -0.2631
   53POPC  H13A 6976   5.910   1.298   6.592 -1.7586  0.9107 -1.3780
   53POPC  H13B 6977   5.847   1.132   6.610 -0.7124 -0.8645 -1.1817
   53POPC  H13C 6978   5.972   1.171   6.497  2.0586 -0.1465  2.6762
   53POPC   C14 6972   5.640   1.262   6.494  0.3629  0.1493  0.5673
   53POPC  H14A 6979   5.568   1.258   6.414 -0.3670  0.8377  1.1913
   53POPC  H14B 6980   5.618   1.184   6.566  0.7902 -0.7690 -0.2885
   53POPC  H14C 6981   5.638   1.360   6.538  0.8118  0.5986 -0.3927
   53POPC   C15 6973   5.762   1.129   6.339 -0.3052  0.3509 -0.0583
   53POPC  H15A 6982   5.704   1.148   6.250  1.3497  0.4114 -1.1400
   53POPC  H15B 6983   5.736   1.043   6.398 -2.7146 -1.2187 -3.2633
   53POPC  H15C 6984   5.858   1.116   6.291 -0.3491  0.5801 -0.2110
   53POPC   C11 6985   5.729   1.421   6.241  0.1077 -0.7845 -0.1708
   53POPC  H11A 6986   5.743   1.344   6.163 -0.1591 -2.2578  1.2135
   53POPC  H11B 6987   5.764   1.520   6.203 -0.1967 -0.5598  0.1243
   53POPC     P 6988   5.556   1.578   6.328  0.1358 -0.1152 -0.1964
   53POPC   O13 6989   5.676   1.625   6.399 -0.0219  0.6352 -0.4280
   53POPC   O14 6990   5.433   1.561   6.409  0.2584 -0.4063 -0.0704
   53POPC   O12 6991   5.592   1.429   6.281  0.2551 -0.2202  0.2295
   53POPC   O11 6992   5.535   1.660   6.193 -0.4206  0.0869  0.0093
   53POPC    C1 6993   5.426   1.625   6.106  0.2972 -0.1538 -0.8006
   53POPC    HA 6994   5.412   1.718   6.046  0.0599  0.6783  0.5263
   53POPC    HB 6995   5.331   1.614   6.162  2.0038 -1.1824  1.9993
   53POPC    C2 6996   5.453   1.512   6.005  0.3901 -0.5007 -0.3889
   53POPC    HS 6997   5.440   1.423   6.070 -0.1313 -0.0952  0.0749
   53POPC   O21 6998   5.590   1.518   5.965  0.6241  0.4729  0.5170
   53POPC   C21 6999   5.631   1.411   5.896  0.1930  0.4537  0.2852
   53POPC   O22 7000   5.565   1.312   5.868  0.6351  0.2189  0.0658
   53POPC   C22 7001   5.770   1.444   5.843 -0.2664  0.4184 -0.9496
   53POPC   H2R 7002   5.834   1.449   5.934 -1.3849  0.1915 -0.1248
   53POPC   H2S 7003   5.765   1.544   5.795 -1.1459  1.9258  2.1222
   53POPC    C3 7004   5.349   1.516   5.891 -0.1364 -0.0183  0.1005
   53POPC    HX 7005   5.246   1.516   5.932 -0.4450  1.7149 -0.6581
   53POPC    HY 7006   5.357   1.438   5.812 -0.1768  0.5126 -0.4271
   53POPC   O31 7007   5.371   1.636   5.817  0.6891 -0.3822 -0.2570
   53POPC   C31 7008   5.277   1.648   5.724  0.2276 -0.2180  0.2258
   53POPC   O32 7009   5.191   1.565   5.701  0.0456 -0.0286  0.2264
   53POPC   C32 7010   5.300   1.776   5.644 -0.5395 -0.5693 -0.5680
   53POPC   H2X 7011   5.383   1.830   5.693  1.3187 -2.1618 -1.8770
   53POPC   H2Y 7012   5.204   1.831   5.633 -1.4738 -2.1638 -0.5869
   53POPC   C23 7013   5.829   1.337   5.752  0.4002  0.1154 -0.1696
   53POPC   H3R 7014   5.756   1.294   5.679  2.4004 -0.4376 -1.9107
   53POPC   H3S 7015   5.859   1.258   5.824  2.3801  1.9770  1.0711
   53POPC   C24 7016   5.953   1.395   5.682  0.4406  0.1758 -0.0482
   53POPC   H4R 7017   6.021   1.441   5.757  2.8514 -2.5727 -0.4434
   53POPC   H4S 7018   5.911   1.474   5.617 -2.7223 -1.9028 -0.6678
   53POPC   C25 7019   6.019   1.296   5.586  0.0605  0.2803 -0.4130
   53POPC   H5R 7020   5.945   1.270   5.507 -1.2963  2.2788  0.1568
   53POPC   H5S 7021   6.026   1.204   5.647  2.7603  0.3427 -0.5731
   53POPC   C26 7022   6.152   1.342   5.526  0.3679  0.3184  0.2928
   53POPC   H6R 7023   6.200   1.406   5.603  1.5670 -2.7554  2.1832
   53POPC   H6S 7024   6.133   1.406   5.437 -1.1434  1.0062  1.0957
   53POPC   C27 7025   6.256   1.235   5.493  0.1266  0.0759  0.3113
   53POPC   H7R 7026   6.310   1.230   5.590 -0.9618  4.1783  1.2401
   53POPC   H7S 7027   6.332   1.276   5.423 -0.3994  0.5503  0.0135
   53POPC   C28 7028   6.193   1.106   5.441  0.0329  0.2979 -0.1356
   53POPC   H8R 7029   6.131   1.143   5.356 -0.9168 -2.2053 -0.5661
   53POPC   H8S 7030   6.126   1.061   5.518 -1.1763 -2.4420 -2.6991
   53POPC   C29 7031   6.299   1.008   5.399 -0.1538 -0.1232  0.3623
   53POPC   H91 7032   6.347   0.960   5.485  0.4159  1.7734  1.1203
   53POPC  C210 7033   6.311   0.977   5.269  0.0541  0.3635  0.2658
   53POPC  H101 7034   6.378   0.892   5.248  1.0018  0.6226  2.1177
   53POPC  C211 7035   6.249   1.030   5.143 -0.2437 -0.1305  0.2054
   53POPC  H11R 7036   6.146   1.066   5.159  0.5920  1.9897  1.0200
   53POPC  H11S 7037   6.255   0.947   5.069  0.3326  1.3306 -1.4375
   53POPC  C212 7038   6.327   1.142   5.073 -0.0532 -0.6196 -0.3746
   53POPC  H12R 7039   6.432   1.109   5.058  0.8558  0.1699  3.7573
   53POPC  H12S 7040   6.340   1.226   5.144 -3.0801 -2.9117  3.0945
   53POPC  C213 7041   6.261   1.196   4.946 -0.1996 -0.0774 -0.0677
   53POPC  H13R 7042   6.156   1.224   4.968  0.7287  2.1905  1.7068
   53POPC  H13S 7043   6.251   1.118   4.868  1.3611  0.0448 -0.4039
   53POPC  C214 7044   6.344   1.308   4.882  0.5774 -0.5408  0.1157
   53POPC  H14R 7045   6.443   1.261   4.866  0.8303  0.2564 -0.6842
   53POPC  H14S 7046   6.356   1.407   4.930 -0.0362 -0.0042 -0.8068
   53POPC  C215 7047   6.275   1.345   4.750 -0.0981  0.3592  0.7130
   53POPC  H15R 7048   6.166   1.363   4.761  0.3651  3.2795  1.0068
   53POPC  H15S 7049   6.279   1.262   4.676 -1.7888  0.6292  0.3078
   53POPC  C216 7050   6.328   1.468   4.675  0.0357 -0.2761 -0.2456
   53POPC  H16R 7051   6.431   1.445   4.644 -0.5360  0.9138 -3.1739
   53POPC  H16S 7052   6.332   1.555   4.745  0.5143 -0.5369  0.0538
   53POPC  C217 7053   6.244   1.508   4.554  0.4556  0.3332 -0.3374
   53POPC  H17R 7054   6.269   1.609   4.516  0.7471  0.2004 -0.4976
   53POPC  H17S 7055   6.138   1.510   4.588  0.2131 -0.2533 -1.0240
   53POPC  C218 7056   6.248   1.407   4.439  0.1506  0.2751 -0.2980
   53POPC  H18R 7057   6.217   1.310   4.483  1.5919  1.0708  2.5912
   53POPC  H18S 7058   6.354   1.411   4.406  0.4596  0.8126  0.7565
   53POPC  H18T 7059   6.177   1.441   4.361  1.1629  2.5530 -0.2711
   53POPC   C33 7060   5.351   1.736   5.506 -0.0631 -0.1034 -0.5315
   53POPC   H3X 7061   5.265   1.693   5.449 -0.8127  2.6451 -1.5429
   53POPC   H3Y 7062   5.431   1.659   5.514 -0.3575 -0.4275 -0.6587
   53POPC   C34 7063   5.418   1.858   5.442  0.0775  0.0680 -0.0513
   53POPC   H4X 7064   5.499   1.888   5.512  1.6413 -2.3930 -0.7360
   53POPC   H4Y 7065   5.353   1.948   5.436 -0.1019 -0.1923 -2.1574
   53POPC   C35 7066   5.490   1.832   5.310  0.2183 -0.4629  0.1265
   53POPC   H5X 7067   5.545   1.737   5.326  0.6965 -0.6981 -2.6964
   53POPC   H5Y 7068   5.562   1.915   5.293 -0.6303  0.1763 -0.4018
   53POPC   C36 7069   5.388   1.817   5.197  0.2242 -0.2940  0.0977
   53POPC   H6X 7070   5.325   1.908   5.186  0.8357  0.3065  1.4239
   53POPC   H6Y 7071   5.317   1.737   5.230 -1.2903  1.1065  0.3004
   53POPC   C37 7072   5.456   1.786   5.064 -0.0930 -0.2336 -0.0798
   53POPC   H7X 7073   5.523   1.697   5.062  0.5403  0.2028  0.9789
   53POPC   H7Y 7074   5.519   1.874   5.037  2.1977 -1.7416  0.2404
   53POPC   C38 7075   5.351   1.753   4.958 -0.1528 -0.3996  0.0327
   53POPC   H8X 7076   5.280   1.836   4.941 -0.4755 -0.6749  0.0317
   53POPC   H8Y 7077   5.292   1.668   5.000 -1.3553 -0.6525 -2.1119
   53POPC   C39 7078   5.416   1.725   4.822 -0.4722 -0.3762 -0.1265
   53POPC   H9X 7079   5.497   1.649   4.831 -1.0398 -1.2775 -2.3620
   53POPC   H9Y 7080   5.460   1.822   4.788  0.0083 -0.1104  1.2201
   53POPC  C310 7081   5.327   1.663   4.715 -0.4016 -0.1147 -0.3378
   53POPC  H10X 7082   5.220   1.669   4.747  0.1532  0.8371  1.3618
   53POPC  H10Y 7083   5.355   1.557   4.698 -2.9114 -0.5701 -2.0443
   53POPC  C311 7084   5.330   1.738   4.582  0.2550  0.0069 -0.2521
   53POPC  H11X 7085   5.386   1.834   4.590  2.9967 -1.5832  0.1507
   53POPC  H11Y 7086   5.224   1.762   4.558  0.1119 -0.2519  0.1203
   53POPC  C312 7087   5.399   1.660   4.470  0.3769 -0.0728 -0.1214
   53POPC  H12X 7088   5.337   1.568   4.461 -0.1755  0.2974 -0.1135
   53POPC  H12Y 7089   5.499   1.622   4.499  0.6373  0.3686 -0.4344
   53POPC  C313 7090   5.396   1.738   4.339 -0.2764 -0.3658 -0.2868
   53POPC  H13X 7091   5.435   1.839   4.366 -0.6667 -0.3101  0.0658
   53POPC  H13Y 7092   5.294   1.747   4.297 -0.2415  0.5613 -0.1985
   53POPC  C314 7093   5.480   1.683   4.224  0.4697  0.4440 -0.1356
   53POPC  H14X 7094   5.419   1.596   4.194  0.1887  0.4013  0.5650
   53POPC  H14Y 7095   5.577   1.651   4.269 -0.4125 -1.4809  0.4123
   53POPC  C315 7096   5.499   1.779   4.105 -0.2250  0.0242 -0.5873
   53POPC  H15X 7097   5.506   1.885   4.137  2.1927 -0.5875  1.0587
   53POPC  H15Y 7098   5.404   1.768   4.049 -0.5182 -0.5964  0.0166
   53POPC  C316 7099   5.620   1.739   4.021  0.2020 -0.4021  0.2168
   53POPC  H16X 7100   5.605   1.797   3.928 -2.5262 -0.1106  0.7850
   53POPC  H16Y 7101   5.617   1.629   4.002 -1.4618 -0.5173  1.0140
   53POPC  H16Z 7102   5.717   1.778   4.057 -0.3502  2.2627 -1.0386
   54POPC     N 7103   0.050   6.865   5.868 -0.0752 -0.1118  0.2891
   54POPC   C12 7104   7.924   6.749   5.907 -0.2939 -0.1199 -0.1266
   54POPC  H12A 7108   7.822   6.783   5.900 -0.0874  0.1840 -1.9215
   54POPC  H12B 7109   7.943   6.729   6.012 -1.8118 -3.5758 -0.4382
   54POPC   C13 7105   0.007   6.989   5.943 -0.3623 -0.2779  0.4021
   54POPC  H13A 7110   0.028   6.971   6.048  0.9584 -0.5665  0.1033
   54POPC  H13B 7111   0.067   7.067   5.898 -0.1688 -1.2269 -1.0015
   54POPC  H13C 7112   7.866   7.018   5.929 -0.2783  1.8617  3.3770
   54POPC   C14 7106   0.192   6.830   5.907 -0.0388 -0.3472 -0.0568
   54POPC  H14A 7113   0.253   6.918   5.893 -0.2103 -0.3575 -0.9428
   54POPC  H14B 7114   0.191   6.799   6.010  4.1386  0.0743  0.1676
   54POPC  H14C 7115   0.221   6.750   5.841  2.1586  0.2485  0.1631
   54POPC   C15 7107   0.057   6.889   5.719  0.1400  0.0557  0.3269
   54POPC  H15A 7116   0.104   6.981   5.686 -1.5445 -0.3167 -3.3417
   54POPC  H15B 7117   7.919   6.884   5.681  0.5861  0.2465 -0.9997
   54POPC  H15C 7118   0.111   6.808   5.672 -0.8595 -0.8327  0.6967
   54POPC   C11 7119   7.953   6.616   5.838  0.2051 -0.5302  0.8578
   54POPC  H11A 7120   7.935   6.623   5.728 -1.7704  1.6545  1.2777
   54POPC  H11B 7121   7.867   6.563   5.886  0.0635 -0.1225  1.0523
   54POPC     P 7122   0.128   6.404   5.847 -0.0367  0.0562  0.3412
   54POPC   O13 7123   0.010   6.339   5.908 -0.3829  0.2078 -0.1676
   54POPC   O14 7124   0.262   6.361   5.892  0.0146 -0.2498 -0.1059
   54POPC   O12 7125   0.120   6.563   5.868  0.8323  0.1943 -0.3605
   54POPC   O11 7126   0.124   6.381   5.689 -0.1794  0.0921  0.3395
   54POPC    C1 7127   0.229   6.443   5.614 -0.1909 -0.2488  0.0411
   54POPC    HA 7128   0.325   6.398   5.647 -0.4660 -0.6681  0.2799
   54POPC    HB 7129   0.211   6.547   5.649 -1.0369 -0.2381 -0.4025
   54POPC    C2 7130   0.201   6.425   5.464  0.6349  0.0116 -0.1485
   54POPC    HS 7131   0.247   6.513   5.414 -0.4144  0.1327 -0.9340
   54POPC   O21 7132   0.060   6.428   5.439  0.6130  0.2024 -0.0033
   54POPC   C21 7133   7.961   6.546   5.451 -0.0712 -0.1945  0.4733
   54POPC   O22 7134   0.062   6.649   5.468  0.0840 -0.2822  0.4251
   54POPC   C22 7135   7.809   6.542   5.437 -0.0635  0.1504 -0.2289
   54POPC   H2R 7136   7.795   6.553   5.328 -0.0830 -0.4899 -0.2963
   54POPC   H2S 7137   7.774   6.634   5.489 -0.2384  0.6819 -1.2837
   54POPC    C3 7138   0.267   6.299   5.406 -0.4140 -0.3777 -0.5140
   54POPC    HX 7139   0.236   6.210   5.465  0.2252 -0.7579 -0.7470
   54POPC    HY 7140   0.378   6.300   5.413 -0.3922 -0.8952 -0.7488
   54POPC   O31 7141   0.236   6.278   5.268 -0.7375 -0.0495 -0.4919
   54POPC   C31 7142   0.299   6.346   5.172  0.3057 -0.0888  0.1584
   54POPC   O32 7143   0.369   6.445   5.185 -0.1664  0.1524  0.8671
   54POPC   C32 7144   0.246   6.278   5.047  0.7711 -0.3500  0.1003
   54POPC   H2X 7145   0.245   6.167   5.058 -2.6429 -0.6086 -1.9766
   54POPC   H2Y 7146   0.306   6.312   4.960  0.2014 -1.8167 -0.8938
   54POPC   C23 7147   7.745   6.414   5.492  0.3608  0.0766  0.1090
   54POPC   H3R 7148   7.638   6.438   5.514  0.0436 -1.4776  0.3240
   54POPC   H3S 7149   7.802   6.388   5.584  0.7447  2.7380  0.6565
   54POPC   C24 7150   7.745   6.301   5.389 -0.0604 -0.1429  0.3499
   54POPC   H4R 7151   7.717   6.204   5.437 -0.1950  0.2684  1.1132
   54POPC   H4S 7152   7.850   6.296   5.354 -0.1169 -0.7766  0.2651
   54POPC   C25 7153   7.646   6.315   5.273 -0.1330 -0.7727  0.3328
   54POPC   H5R 7154   7.660   6.413   5.223  0.1499 -0.8868  0.1891
   54POPC   H5S 7155   7.546   6.322   5.319  0.1655  1.9648  0.6301
   54POPC   C26 7156   7.649   6.194   5.179 -0.0367 -0.4693 -0.0571
   54POPC   H6R 7157   7.586   6.115   5.224 -1.0957  0.6622  0.4614
   54POPC   H6S 7158   7.752   6.156   5.162  0.5849  1.4248 -0.6823
   54POPC   C27 7159   7.565   6.222   5.054 -0.3318 -0.0593  0.2310
   54POPC   H7R 7160   7.615   6.298   4.990  1.4182 -0.3578  1.2171
   54POPC   H7S 7161   7.471   6.277   5.076 -0.5742 -0.6428  0.6544
   54POPC   C28 7162   7.538   6.093   4.975  0.4373  0.0622 -0.2349
   54POPC   H8R 7163   7.490   6.018   5.041 -1.3596  1.4316  0.0735
   54POPC   H8S 7164   7.638   6.061   4.941 -0.6958 -0.7794 -2.8386
   54POPC   C29 7165   7.438   6.126   4.868  0.2641 -0.5591 -0.2638
   54POPC   H91 7166   7.341   6.161   4.905  0.9511 -0.4919  1.5372
   54POPC  C210 7167   7.444   6.104   4.736 -1.0526  0.2356 -0.4585
   54POPC  H101 7168   7.358   6.125   4.671 -1.0889 -0.0289 -0.4972
   54POPC  C211 7169   7.552   6.033   4.659 -0.2682  0.3427  0.5388
   54POPC  H11R 7170   7.643   6.043   4.722 -0.8970  0.7775  1.4102
   54POPC  H11S 7171   7.575   6.090   4.567 -2.3532  2.0534  1.0080
   54POPC  C212 7172   7.516   5.889   4.624  0.3878  0.3633 -0.2190
   54POPC  H12R 7173   7.410   5.875   4.594  0.6323  0.3909 -1.1031
   54POPC  H12S 7174   7.534   5.830   4.717  1.7785  0.7430 -0.2277
   54POPC  C213 7175   7.604   5.826   4.515  0.2480  0.5152 -0.4187
   54POPC  H13R 7176   7.708   5.849   4.545  0.1743  1.1036 -0.6174
   54POPC  H13S 7177   7.579   5.875   4.419  0.5064 -0.0693 -0.7806
   54POPC  C214 7178   7.588   5.674   4.505  0.1612  0.4956 -0.0185
   54POPC  H14R 7179   7.481   5.662   4.478 -0.0361  2.8922 -0.3988
   54POPC  H14S 7180   7.606   5.618   4.599 -2.0528 -2.4578 -1.2644
   54POPC  C215 7181   7.682   5.618   4.398 -0.2695  0.1059 -0.1976
   54POPC  H15R 7182   7.679   5.687   4.310 -0.7873  1.1044  0.5897
   54POPC  H15S 7183   7.651   5.518   4.361  2.1829 -0.4192 -0.8962
   54POPC  C216 7184   7.821   5.602   4.460 -0.3038 -0.0791 -0.1709
   54POPC  H16R 7185   7.830   5.534   4.547  0.7734  0.9494  0.5314
   54POPC  H16S 7186   7.861   5.700   4.493 -0.2840 -0.2059  0.1794
   54POPC  C217 7187   7.921   5.543   4.360 -0.4759 -0.6596 -0.0077
   54POPC  H17R 7188   7.875   5.447   4.328  0.7566 -1.0581 -0.6231
   54POPC  H17S 7189   0.055   5.532   4.414  0.2247  1.2777 -0.7260
   54POPC  C218 7190   7.951   5.631   4.238 -0.2507 -0.6540  0.0503
   54POPC  H18R 7191   7.943   5.735   4.278  0.3302 -1.0188  1.1461
   54POPC  H18S 7192   7.869   5.611   4.165 -0.7944  2.5446 -0.2933
   54POPC  H18T 7193   0.088   5.625   4.189 -1.0923 -1.7073 -1.6521
   54POPC   C33 7194   0.098   6.310   5.024  0.9116 -0.1265 -0.5023
   54POPC   H3X 7195   0.088   6.419   5.007  2.9862  0.6781  2.9803
   54POPC   H3Y 7196   0.047   6.291   5.121  3.1762 -0.8661  0.5645
   54POPC   C34 7197   0.038   6.231   4.908  0.4560  0.0408 -0.3804
   54POPC   H4X 7198   0.117   6.243   4.830  0.6689  1.3501  0.0248
   54POPC   H4Y 7199   7.913   6.293   4.876  1.1039  0.2533 -1.8791
   54POPC   C35 7200   0.006   6.083   4.933  0.3303  0.1459  0.0649
   54POPC   H5X 7201   7.888   6.066   5.008  2.6060  1.1944  2.8857
   54POPC   H5Y 7202   0.101   6.037   4.968  1.1247  0.5642 -1.4754
   54POPC   C36 7203   7.924   6.014   4.804 -0.5562  0.5538  0.1306
   54POPC   H6X 7204   0.049   6.006   4.735 -0.6505 -1.2380  0.1539
   54POPC   H6Y 7205   7.842   6.067   4.751 -0.6749 -0.2062 -0.4623
   54POPC   C37 7206   7.870   5.873   4.829  0.0627  0.2816 -0.0448
   54POPC   H7X 7207   7.869   5.820   4.731 -2.3576  0.2899 -0.0632
   54POPC   H7Y 7208   7.766   5.878   4.869 -0.0266 -0.5006 -0.1741
   54POPC   C38 7209   7.957   5.776   4.908  0.1352  0.3809 -0.0032
   54POPC   H8X 7210   7.949   5.802   5.015 -1.1471 -0.0187  0.0063
   54POPC   H8Y 7211   0.102   5.780   4.880  0.3516  0.9186  0.7451
   54POPC   C39 7212   7.914   5.633   4.875  0.4270  0.3407 -0.2120
   54POPC   H9X 7213   7.890   5.605   4.770  1.5852 -1.0189 -0.1194
   54POPC   H9Y 7214   7.827   5.603   4.937  0.5663  1.9533  0.7839
   54POPC  C310 7215   0.056   5.534   4.927 -0.3364 -0.2643  0.2723
   54POPC  H10X 7216   0.155   5.559   4.883  1.2846 -0.7366  3.5038
   54POPC  H10Y 7217   0.030   5.431   4.895  0.1088  0.0363 -1.1092
   54POPC  C311 7218   0.047   5.519   5.079  0.2850  0.6083  0.4010
   54POPC  H11X 7219   7.902   5.501   5.101  0.1372 -0.1245 -0.6499
   54POPC  H11Y 7220   0.066   5.621   5.118 -2.7153  1.2427  0.2917
   54POPC  C312 7221   0.137   5.416   5.148  0.0950  0.0899 -0.1238
   54POPC  H12X 7222   0.239   5.454   5.166 -0.6393  2.6267 -0.9951
   54POPC  H12Y 7223   0.142   5.322   5.089 -0.0867  0.2803 -0.4448
   54POPC  C313 7224   0.082   5.379   5.286 -0.2209  0.5694 -0.1174
   54POPC  H13X 7225   0.070   5.477   5.336  0.7478  0.5770  0.1151
   54POPC  H13Y 7226   0.157   5.308   5.329 -0.3712 -0.2077 -1.1140
   54POPC  C314 7227   7.916   5.296   5.280  0.2752 -0.2837  0.0320
   54POPC  H14X 7228   7.946   5.206   5.222 -0.2005 -0.3234 -0.1579
   54POPC  H14Y 7229   7.835   5.347   5.223 -0.2540  0.0396  1.0674
   54POPC  C315 7230   7.847   5.267   5.413  0.0382 -0.2345 -0.0790
   54POPC  H15X 7231   7.765   5.197   5.387 -0.0201 -0.7583  1.4590
   54POPC  H15Y 7232   7.812   5.369   5.440  3.0676  1.3675 -1.8882
   54POPC  C316 7233   7.928   5.205   5.527 -0.1154  0.0459  0.1834
   54POPC  H16X 7234   7.861   5.166   5.607  1.0235  0.6807  1.4583
   54POPC  H16Y 7235   0.037   5.283   5.560  1.3563 -1.3318  0.4216
   54POPC  H16Z 7236   0.026   5.119   5.488 -0.8684 -0.8690  0.9422
   55POPC     N 7237   6.116   2.866   6.412 -0.0548 -0.2608  0.2712
   55POPC   C12 7238   6.130   2.811   6.271 -0.1254 -0.1430  0.2181
   55POPC  H12A 7242   6.029   2.792   6.239 -1.4245  2.1861  2.6937
   55POPC  H12B 7243   6.192   2.724   6.275  0.0709 -0.2894 -4.3184
   55POPC   C13 7239   6.091   2.749   6.503  0.7496 -0.3069  0.4382
   55POPC  H13A 7244   6.188   2.707   6.525  0.1734 -1.0934  1.5597
   55POPC  H13B 7245   6.041   2.779   6.594 -1.2895 -1.3498 -0.3145
   55POPC  H13C 7246   6.020   2.682   6.457  0.9006  0.4868 -0.9602
   55POPC   C14 7240   6.245   2.933   6.455 -0.2203  0.2987 -0.0979
   55POPC  H14A 7247   6.265   3.008   6.380  0.7272 -2.3430 -2.5794
   55POPC  H14B 7248   6.239   2.963   6.558  1.9642 -1.5343  0.5902
   55POPC  H14C 7249   6.323   2.865   6.425  1.5357  1.6484  1.3568
   55POPC   C15 7241   6.001   2.962   6.429  0.1402 -0.0224  0.2618
   55POPC  H15A 7250   6.026   3.055   6.380 -1.2397  0.7870  1.0595
   55POPC  H15B 7251   5.979   2.989   6.532 -0.4041  1.2069 -0.1656
   55POPC  H15C 7252   5.913   2.908   6.398 -0.7484  2.0130 -0.8354
   55POPC   C11 7253   6.191   2.887   6.153  0.0550 -0.0753  0.3532
   55POPC  H11A 7254   6.112   2.956   6.117  1.1677  1.0162 -0.0050
   55POPC  H11B 7255   6.207   2.804   6.081 -0.1924  0.2444 -0.0706
   55POPC     P 7256   6.367   3.044   6.073 -0.2729 -0.5835 -0.0449
   55POPC   O13 7257   6.498   2.991   6.028  0.2606  0.4599  0.2470
   55POPC   O14 7258   6.368   3.183   6.125  0.6549 -0.5701 -0.0892
   55POPC   O12 7259   6.317   2.944   6.188  0.2915 -0.5335  0.2475
   55POPC   O11 7260   6.259   3.045   5.955  0.2406  0.1229 -0.5152
   55POPC    C1 7261   6.290   2.997   5.824  0.0391 -0.0732 -0.4919
   55POPC    HA 7262   6.198   2.957   5.775 -1.2038  0.9137  0.9963
   55POPC    HB 7263   6.366   2.918   5.836 -1.5694 -1.2973  2.0508
   55POPC    C2 7264   6.352   3.105   5.734 -0.4069  0.4663 -0.1605
   55POPC    HS 7265   6.454   3.124   5.775  0.8644 -1.5456 -2.2315
   55POPC   O21 7266   6.265   3.217   5.750 -0.5646  0.3140  0.0472
   55POPC   C21 7267   6.318   3.336   5.720  0.4016 -0.0290  0.3772
   55POPC   O22 7268   6.438   3.356   5.713  0.2653  0.6486 -0.0505
   55POPC   C22 7269   6.208   3.440   5.712  0.0560 -0.4705 -0.7356
   55POPC   H2R 7270   6.180   3.460   5.818 -1.2675 -0.0260 -1.1516
   55POPC   H2S 7271   6.122   3.401   5.653 -0.7199 -0.7524  0.5583
   55POPC    C3 7272   6.357   3.055   5.588  0.3367 -0.0493  0.0369
   55POPC    HX 7273   6.252   3.063   5.552  0.1818  1.0827  0.7036
   55POPC    HY 7274   6.409   2.957   5.589  2.2662  0.9242 -1.4426
   55POPC   O31 7275   6.422   3.148   5.501 -0.2289  0.4011  0.0956
   55POPC   C31 7276   6.553   3.139   5.478 -0.2741 -0.0502  0.0302
   55POPC   O32 7277   6.621   3.045   5.516  0.4500  0.3779 -0.1971
   55POPC   C32 7278   6.615   3.253   5.399 -0.7129 -0.2509 -0.6126
   55POPC   H2X 7279   6.625   3.338   5.470 -0.7898  1.4602 -2.6064
   55POPC   H2Y 7280   6.544   3.283   5.319  0.8907  0.2190 -1.8930
   55POPC   C23 7281   6.281   3.560   5.650  0.2791 -0.4421 -0.4156
   55POPC   H3R 7282   6.351   3.519   5.575 -1.1923 -2.0042 -0.9863
   55POPC   H3S 7283   6.338   3.604   5.734 -1.6249 -0.4695  0.9364
   55POPC   C24 7284   6.192   3.663   5.581  0.2538 -0.3633 -0.2667
   55POPC   H4R 7285   6.121   3.685   5.663 -0.9283  2.1761 -1.8823
   55POPC   H4S 7286   6.142   3.609   5.498 -1.7455 -1.3345  1.5208
   55POPC   C25 7287   6.271   3.783   5.527 -0.4078 -0.0570 -0.5571
   55POPC   H5R 7288   6.346   3.757   5.450  0.3802  0.0252  0.1799
   55POPC   H5S 7289   6.329   3.821   5.614 -1.6119 -1.0525  0.6931
   55POPC   C26 7290   6.175   3.894   5.484 -0.2943  0.3104  0.1282
   55POPC   H6R 7291   6.102   3.899   5.568 -0.5213  0.4620 -0.0776
   55POPC   H6S 7292   6.122   3.854   5.395  0.9834  0.1585 -0.5818
   55POPC   C27 7293   6.245   4.023   5.441  0.3081 -0.0010  0.1703
   55POPC   H7R 7294   6.297   4.011   5.344 -2.0393 -1.6946 -0.9346
   55POPC   H7S 7295   6.322   4.061   5.512  0.8604 -0.3545 -0.2308
   55POPC   C28 7296   6.150   4.142   5.422  0.1474 -0.2535 -0.6365
   55POPC   H8R 7297   6.092   4.132   5.516  0.5576 -3.1017 -0.6500
   55POPC   H8S 7298   6.078   4.125   5.340  0.9892 -0.1557 -1.4041
   55POPC   C29 7299   6.231   4.269   5.421 -0.4782  0.1517 -0.1801
   55POPC   H91 7300   6.298   4.299   5.502  1.1796  0.7615 -1.7353
   55POPC  C210 7301   6.225   4.361   5.324  0.5257  0.1630 -0.2322
   55POPC  H101 7302   6.282   4.455   5.329  2.1715 -0.7778 -0.9575
   55POPC  C211 7303   6.137   4.362   5.202 -0.1003 -0.0154  0.2201
   55POPC  H11R 7304   6.058   4.439   5.197 -0.9901 -0.9428 -0.3859
   55POPC  H11S 7305   6.091   4.261   5.190 -1.4738  0.4802  1.1644
   55POPC  C212 7306   6.227   4.380   5.080  0.3004  0.2752  0.5574
   55POPC  H12R 7307   6.292   4.291   5.080 -0.4362 -0.2836  1.8652
   55POPC  H12S 7308   6.289   4.471   5.097 -0.7907  0.9566  0.9910
   55POPC  C213 7309   6.166   4.402   4.941  0.0993  0.2222  0.6369
   55POPC  H13R 7310   6.230   4.456   4.868  1.9424 -3.1578 -0.3779
   55POPC  H13S 7311   6.073   4.460   4.960  0.3649  0.9626 -0.2987
   55POPC  C214 7312   6.129   4.266   4.882  0.0774  0.4831  0.0528
   55POPC  H14R 7313   6.036   4.223   4.925 -0.6557 -0.4974 -2.3883
   55POPC  H14S 7314   6.216   4.197   4.886  1.4987  2.3347  2.2562
   55POPC  C215 7315   6.089   4.282   4.735 -0.5527 -0.1137  0.1560
   55POPC  H15R 7316   6.161   4.349   4.684 -3.3118  1.2912 -2.0224
   55POPC  H15S 7317   5.993   4.337   4.726  0.5412  1.7203 -0.5449
   55POPC  C216 7318   6.078   4.143   4.673 -0.6910 -0.0260 -0.0218
   55POPC  H16R 7319   6.005   4.145   4.590 -0.8326 -0.1295  0.0983
   55POPC  H16S 7320   6.047   4.067   4.748  0.6265 -0.7252 -0.1681
   55POPC  C217 7321   6.203   4.079   4.612 -0.4194  0.2951  0.1911
   55POPC  H17R 7322   6.192   3.971   4.588 -1.7440  0.2948  0.7898
   55POPC  H17S 7323   6.282   4.073   4.690 -0.3103 -2.7620 -0.0699
   55POPC  C218 7324   6.265   4.161   4.499 -0.7847  0.2298 -0.0562
   55POPC  H18R 7325   6.196   4.176   4.413 -0.2332 -0.9865 -0.7200
   55POPC  H18S 7326   6.359   4.120   4.456 -0.8736  1.0021 -1.0058
   55POPC  H18T 7327   6.278   4.264   4.538 -1.1103 -0.3572  1.6182
   55POPC   C33 7328   6.744   3.213   5.327 -0.1985 -0.0846  0.2154
   55POPC   H3X 7329   6.818   3.166   5.395  1.1622  1.3541 -0.2333
   55POPC   H3Y 7330   6.777   3.316   5.300 -0.7757  0.5858  1.9944
   55POPC   C34 7331   6.719   3.118   5.211  0.7069  0.1305 -0.1635
   55POPC   H4X 7332   6.632   3.157   5.154 -0.9383 -0.5446  1.8239
   55POPC   H4Y 7333   6.688   3.025   5.265  0.1034  0.9272  0.8718
   55POPC   C35 7334   6.833   3.082   5.116  0.1764 -0.7962 -0.4683
   55POPC   H5X 7335   6.920   3.035   5.167 -0.6618 -0.8342  0.9569
   55POPC   H5Y 7336   6.861   3.174   5.059  1.2136 -0.7235  0.1369
   55POPC   C36 7337   6.792   2.990   5.001 -0.4351 -0.4457 -0.5313
   55POPC   H6X 7338   6.728   3.055   4.939  0.1472  2.2754  1.6013
   55POPC   H6Y 7339   6.732   2.909   5.049 -1.8316  0.4501 -0.7342
   55POPC   C37 7340   6.903   2.935   4.912 -0.3433 -0.0654 -0.6488
   55POPC   H7X 7341   6.863   2.887   4.820 -1.3461 -2.9050  1.2465
   55POPC   H7Y 7342   6.966   2.859   4.962 -1.5589  0.1310  1.2035
   55POPC   C38 7343   6.999   3.045   4.863  0.2023  0.0398  0.6353
   55POPC   H8X 7344   7.072   2.995   4.796 -0.2330  1.0699 -0.6417
   55POPC   H8Y 7345   7.050   3.078   4.956 -0.2995 -0.8249  1.2294
   55POPC   C39 7346   6.927   3.156   4.786  0.5190  0.0311  0.3291
   55POPC   H9X 7347   6.875   3.220   4.859  1.4295  0.4132  0.6553
   55POPC   H9Y 7348   6.860   3.110   4.711  2.2695 -1.2807 -0.4908
   55POPC  C310 7349   7.006   3.254   4.699 -0.3625 -0.2698 -0.8148
   55POPC  H10X 7350   7.046   3.207   4.606 -0.6280  1.4428 -1.8165
   55POPC  H10Y 7351   7.082   3.303   4.763 -1.9801 -0.4527  1.3157
   55POPC  C311 7352   6.917   3.369   4.650 -0.3272  0.1234  0.0447
   55POPC  H11X 7353   6.888   3.417   4.746  1.4664  0.6414  0.3571
   55POPC  H11Y 7354   6.825   3.330   4.603 -1.8541  1.7472  1.6137
   55POPC  C312 7355   6.996   3.468   4.564 -0.3348 -0.0778 -0.1934
   55POPC  H12X 7356   7.093   3.490   4.612 -0.6091  0.4909  0.1051
   55POPC  H12Y 7357   6.934   3.560   4.548  1.9221  1.7202  1.1756
   55POPC  C313 7358   7.023   3.406   4.427 -0.0754 -0.2760 -0.0518
   55POPC  H13X 7359   6.925   3.361   4.397 -1.3851  1.8967  0.8516
   55POPC  H13Y 7360   7.099   3.326   4.439 -0.8632 -0.8795  1.0539
   55POPC  C314 7361   7.073   3.513   4.330  0.0830 -0.6595 -0.3928
   55POPC  H14X 7362   7.151   3.466   4.266  0.5966 -0.5147  0.1210
   55POPC  H14Y 7363   7.128   3.590   4.388 -2.6244  1.4782 -0.5490
   55POPC  C315 7364   6.962   3.580   4.249  0.0152 -0.2802  0.0131
   55POPC  H15X 7365   6.896   3.636   4.319 -0.4029  2.9592 -2.8754
   55POPC  H15Y 7366   6.897   3.498   4.213 -0.1469  0.2796 -1.0003
   55POPC  C316 7367   7.025   3.668   4.142 -0.0200  0.1577  0.3504
   55POPC  H16X 7368   7.084   3.617   4.062 -1.7504  0.0232 -0.8588
   55POPC  H16Y 7369   7.090   3.739   4.198  1.4535 -1.7562  1.1352
   55POPC  H16Z 7370   6.949   3.731   4.091 -0.4651 -1.4759 -1.0409
   56POPC     N 7371   1.724   6.246   5.996  0.3273 -0.2177 -0.7339
   56POPC   C12 7372   1.752   6.111   5.935 -0.3839 -0.8117  0.2520
   56POPC  H12A 7376   1.715   6.037   6.005 -1.8862 -0.4864 -0.1773
   56POPC  H12B 7377   1.860   6.110   5.938 -0.2486  0.6468 -2.9195
   56POPC   C13 7373   1.777   6.358   5.909 -0.2528  0.6047 -0.0451
   56POPC  H13A 7378   1.728   6.363   5.813  2.2370 -3.2168 -1.6650
   56POPC  H13B 7379   1.767   6.448   5.967 -0.1993  0.7828 -0.3093
   56POPC  H13C 7380   1.884   6.344   5.897 -0.2367  0.9960 -0.3794
   56POPC   C14 7374   1.576   6.270   6.012  0.4285 -0.0459 -0.0405
   56POPC  H14A 7381   1.546   6.202   6.090  0.1373  0.1418  0.0124
   56POPC  H14B 7382   1.550   6.368   6.050 -1.7464 -1.3132  1.8723
   56POPC  H14C 7383   1.523   6.247   5.921 -0.0515  0.3103  0.1512
   56POPC   C15 7375   1.789   6.249   6.132  0.1105  0.1548 -0.6387
   56POPC  H15A 7384   1.896   6.232   6.134 -0.0825 -0.9710  1.1023
   56POPC  H15B 7385   1.740   6.174   6.191 -1.8272  2.0131  0.1878
   56POPC  H15C 7386   1.771   6.347   6.174 -1.6654 -0.7492  0.7620
   56POPC   C11 7387   1.692   6.077   5.799 -0.1529 -0.5636  0.0894
   56POPC  H11A 7388   1.714   5.968   5.800 -0.9778 -0.7484 -0.9788
   56POPC  H11B 7389   1.760   6.125   5.725 -0.6575 -0.1691 -0.1171
   56POPC     P 7390   1.466   5.981   5.781 -0.0927 -0.0601  0.0366
   56POPC   O13 7391   1.329   6.035   5.769  0.1415  0.5718  0.2045
   56POPC   O14 7392   1.504   5.889   5.891 -0.5807  0.2692  0.4843
   56POPC   O12 7393   1.556   6.113   5.777  0.0154 -0.1416 -0.2695
   56POPC   O11 7394   1.505   5.915   5.641 -0.0713  0.2605 -0.1085
   56POPC    C1 7395   1.458   5.983   5.524 -0.2694  0.2545 -0.0313
   56POPC    HA 7396   1.534   6.006   5.446 -1.2056 -0.1435 -1.0830
   56POPC    HB 7397   1.416   6.083   5.547  2.4523  1.1981  0.9966
   56POPC    C2 7398   1.346   5.905   5.453 -0.2693  0.1327  0.1041
   56POPC    HS 7399   1.267   5.879   5.527  0.0852  0.2096  0.5161
   56POPC   O21 7400   1.405   5.787   5.399  0.0350  0.6064 -0.6066
   56POPC   C21 7401   1.307   5.707   5.358  0.2222  0.1513 -0.1794
   56POPC   O22 7402   1.186   5.715   5.377  0.2937 -0.2280  0.4380
   56POPC   C22 7403   1.370   5.588   5.288 -0.4248 -0.4573  0.2562
   56POPC   H2R 7404   1.318   5.498   5.327 -0.2870 -1.4906 -1.8203
   56POPC   H2S 7405   1.478   5.579   5.316 -0.5001 -0.4844  0.5362
   56POPC    C3 7406   1.286   5.988   5.338  0.2570 -0.1823 -0.3975
   56POPC    HX 7407   1.266   6.086   5.386 -1.4032 -0.9664  0.5604
   56POPC    HY 7408   1.182   5.954   5.320 -0.1049  0.3673  0.5793
   56POPC   O31 7409   1.367   5.973   5.221  0.0241 -0.0885 -0.5705
   56POPC   C31 7410   1.439   6.084   5.203 -0.2761  0.2364  0.1940
   56POPC   O32 7411   1.451   6.174   5.285 -0.0033  0.7234 -0.3781
   56POPC   C32 7412   1.498   6.084   5.062 -0.0477  0.2148  0.2890
   56POPC   H2X 7413   1.409   6.072   4.996 -0.2448  0.5363  0.4918
   56POPC   H2Y 7414   1.570   6.001   5.046 -1.2246 -0.3276 -2.5208
   56POPC   C23 7415   1.331   5.606   5.141  0.1247 -0.4100  0.1125
   56POPC   H3R 7416   1.229   5.651   5.134 -0.3964 -1.6572 -0.5510
   56POPC   H3S 7417   1.322   5.504   5.099 -1.0769  0.3010 -1.4361
   56POPC   C24 7418   1.444   5.679   5.069 -0.2631  0.1946  0.1085
   56POPC   H4R 7419   1.538   5.623   5.092 -0.2711  0.2254  0.2172
   56POPC   H4S 7420   1.453   5.787   5.096  0.1404  1.4559 -4.6504
   56POPC   C25 7421   1.419   5.679   4.918  0.1717  0.0035  0.0333
   56POPC   H5R 7422   1.326   5.738   4.905  1.5206  2.1507 -0.1373
   56POPC   H5S 7423   1.409   5.574   4.885  1.5193 -0.0625 -0.1977
   56POPC   C26 7424   1.535   5.746   4.845  0.0563  0.2471  0.0741
   56POPC   H6R 7425   1.625   5.685   4.865 -0.6884 -1.7065 -2.2861
   56POPC   H6S 7426   1.548   5.852   4.878 -2.4372  0.7396 -0.3949
   56POPC   C27 7427   1.512   5.736   4.694  0.2176  0.3717  0.0416
   56POPC   H7R 7428   1.407   5.764   4.672 -0.2454 -1.8261 -0.6554
   56POPC   H7S 7429   1.520   5.627   4.672  1.6664  0.1834  1.3895
   56POPC   C28 7430   1.609   5.811   4.603  0.3318  0.1234 -0.0427
   56POPC   H8R 7431   1.707   5.767   4.629  1.2025  1.8343 -0.3082
   56POPC   H8S 7432   1.604   5.920   4.627 -1.5247  0.2248 -0.8333
   56POPC   C29 7433   1.579   5.791   4.457  0.6038  0.1654 -0.1062
   56POPC   H91 7434   1.587   5.685   4.429  0.6848  0.5934 -1.7690
   56POPC  C210 7435   1.549   5.886   4.367  0.9569 -0.2590 -0.6758
   56POPC  H101 7436   1.527   5.859   4.263 -0.7765 -2.2491  0.1897
   56POPC  C211 7437   1.543   6.035   4.384  0.0000 -0.3720  0.0106
   56POPC  H11R 7438   1.601   6.087   4.305 -0.5784  0.6115  0.2263
   56POPC  H11S 7439   1.581   6.067   4.484 -1.5187 -3.0747  1.4943
   56POPC  C212 7440   1.397   6.080   4.375  0.1199 -0.0685 -0.4645
   56POPC  H12R 7441   1.330   6.025   4.445 -0.5861  0.7372 -0.5137
   56POPC  H12S 7442   1.372   6.046   4.272 -0.7585 -0.3231 -0.1749
   56POPC  C213 7443   1.384   6.231   4.392 -0.0858 -0.1228 -0.1139
   56POPC  H13R 7444   1.439   6.256   4.486 -1.3847  0.1814  0.5718
   56POPC  H13S 7445   1.278   6.262   4.399  0.0006 -0.1526  1.7658
   56POPC  C214 7446   1.457   6.305   4.279 -0.8760  0.1169 -0.4711
   56POPC  H14R 7447   1.426   6.262   4.182 -1.5223  0.8829 -0.6087
   56POPC  H14S 7448   1.567   6.293   4.284 -0.9456 -0.7754 -0.8937
   56POPC  C215 7449   1.433   6.456   4.289 -0.4958  0.1137  0.6242
   56POPC  H15R 7450   1.487   6.511   4.368  0.0492 -1.2141  1.1955
   56POPC  H15S 7451   1.324   6.475   4.295 -0.4605  0.9914 -1.1398
   56POPC  C216 7452   1.489   6.519   4.161  0.4509 -0.7492  0.6048
   56POPC  H16R 7453   1.448   6.472   4.070  1.4394  1.0538 -0.7895
   56POPC  H16S 7454   1.600   6.513   4.164  0.4614 -0.7170  0.2680
   56POPC  C217 7455   1.460   6.669   4.161  0.3827 -0.7637 -0.3321
   56POPC  H17R 7456   1.506   6.709   4.068  0.8667 -3.2291 -1.1867
   56POPC  H17S 7457   1.501   6.726   4.246 -1.0502 -1.1427  0.6386
   56POPC  C218 7458   1.310   6.700   4.166  0.5851  0.1003  0.3445
   56POPC  H18R 7459   1.260   6.649   4.251  1.6909  1.2782  1.7297
   56POPC  H18S 7460   1.268   6.674   4.067  1.9619  2.0124 -0.7983
   56POPC  H18T 7461   1.302   6.810   4.180 -2.0492  0.2540 -1.8824
   56POPC   C33 7462   1.563   6.218   5.028 -0.5522  0.3299 -0.2254
   56POPC   H3X 7463   1.663   6.217   5.076  0.1521 -0.0100 -1.6699
   56POPC   H3Y 7464   1.500   6.306   5.054 -1.8988 -0.4980 -0.5950
   56POPC   C34 7465   1.597   6.219   4.879 -0.1748 -0.1927 -0.1442
   56POPC   H4X 7466   1.502   6.221   4.821 -0.7997 -1.3827  0.8314
   56POPC   H4Y 7467   1.646   6.123   4.852 -0.0236 -0.0727 -0.3036
   56POPC   C35 7468   1.684   6.339   4.838 -0.1483 -0.0421  0.3480
   56POPC   H5X 7469   1.783   6.339   4.887  0.5815  0.2943 -1.1042
   56POPC   H5Y 7470   1.643   6.437   4.869  1.2186 -0.3465  3.3302
   56POPC   C36 7471   1.716   6.332   4.688 -0.3267  0.5172  0.2818
   56POPC   H6X 7472   1.751   6.434   4.665  0.7153  0.4045  1.2800
   56POPC   H6Y 7473   1.619   6.304   4.641 -0.3942 -2.3461  1.9480
   56POPC   C37 7474   1.831   6.235   4.656 -0.1385  0.8695 -0.1089
   56POPC   H7X 7475   1.800   6.133   4.686  2.2013  0.4046  0.7947
   56POPC   H7Y 7476   1.929   6.259   4.703 -0.3062 -0.5095  0.9853
   56POPC   C38 7477   1.870   6.231   4.509  0.0437 -0.7282 -0.0272
   56POPC   H8X 7478   1.937   6.318   4.492  1.7475 -1.9407  0.3965
   56POPC   H8Y 7479   1.780   6.247   4.445 -0.1595 -1.0393  0.1856
   56POPC   C39 7480   1.951   6.105   4.480  0.3867 -0.4867 -0.1195
   56POPC   H9X 7481   1.889   6.013   4.484  0.8845 -0.7834  0.8352
   56POPC   H9Y 7482   2.037   6.095   4.550  0.7153 -1.1280 -0.6092
   56POPC  C310 7483   2.030   6.106   4.349  0.5168 -0.4208 -0.0421
   56POPC  H10X 7484   2.087   6.010   4.350  0.7723 -0.2691  0.0312
   56POPC  H10Y 7485   2.103   6.189   4.364 -0.8141  0.7798 -0.1637
   56POPC  C311 7486   1.956   6.140   4.219  0.4092  0.1580  0.1711
   56POPC  H11X 7487   1.932   6.247   4.235  3.0010  0.7489  0.4396
   56POPC  H11Y 7488   1.859   6.087   4.216  0.9566 -0.8148 -1.2760
   56POPC  C312 7489   2.040   6.124   4.092 -0.2251  0.0142 -0.2298
   56POPC  H12X 7490   1.978   6.174   4.014 -1.5030  1.2977  1.5813
   56POPC  H12Y 7491   2.047   6.017   4.066 -0.2471 -0.3504  1.2181
   56POPC  C313 7492   2.173   6.199   4.089 -0.0736 -0.2394  0.1774
   56POPC  H13X 7493   2.249   6.140   4.145  0.7095  0.3044 -0.2973
   56POPC  H13Y 7494   2.163   6.297   4.142  0.9041  1.0750 -1.9818
   56POPC  C314 7495   2.244   6.221   3.955 -0.5242  0.1574  0.0010
   56POPC  H14X 7496   2.168   6.267   3.889 -0.1184  0.6941 -0.1005
   56POPC  H14Y 7497   2.279   6.123   3.916 -0.5386 -0.0414  0.4839
   56POPC  C315 7498   2.362   6.319   3.963 -0.0373 -0.4186 -0.0923
   56POPC  H15X 7499   2.328   6.407   4.021 -1.1091 -1.1263  0.3841
   56POPC  H15Y 7500   2.386   6.341   3.857 -1.8905 -1.7829 -0.8272
   56POPC  C316 7501   2.485   6.273   4.040 -0.5514 -0.4256  0.7369
   56POPC  H16X 7502   2.447   6.246   4.141 -0.6924  0.8620  1.0360
   56POPC  H16Y 7503   2.559   6.355   4.052 -0.1319 -0.9192  1.6737
   56POPC  H16Z 7504   2.544   6.197   3.984 -1.0242  0.6310 -1.2110
   57POPC     N 7505   1.449   5.068   6.138 -0.0967  0.1739 -0.2355
   57POPC   C12 7506   1.464   5.213   6.177  0.2789  0.1184 -0.1728
   57POPC  H12A 7510   1.569   5.236   6.184 -0.0101  1.5073 -0.2006
   57POPC  H12B 7511   1.435   5.223   6.280  0.5864 -2.4405  0.1765
   57POPC   C13 7507   1.534   4.970   6.215 -0.6354 -0.3893 -0.3502
   57POPC  H13A 7512   1.501   4.967   6.318 -0.2908 -1.3887 -0.2685
   57POPC  H13B 7513   1.516   4.876   6.165 -1.9854  0.2562 -1.1087
   57POPC  H13C 7514   1.639   4.994   6.213 -0.4641 -1.0504  0.6462
   57POPC   C14 7508   1.302   5.041   6.158 -0.0798  0.3203  0.0895
   57POPC  H14A 7515   1.282   4.945   6.112 -1.7262  1.5866 -1.8974
   57POPC  H14B 7516   1.275   5.031   6.262  1.0442  1.1841  0.4658
   57POPC  H14C 7517   1.248   5.118   6.105  0.5551  0.9358  0.3314
   57POPC   C15 7509   1.482   5.048   5.992 -0.7167 -0.8470 -0.2360
   57POPC  H15A 7518   1.444   5.136   5.942  1.0824 -0.3081 -0.6682
   57POPC  H15B 7519   1.439   4.956   5.955 -2.2132  0.0934 -0.9126
   57POPC  H15C 7520   1.589   5.043   5.977 -0.7236  0.1433 -0.6458
   57POPC   C11 7521   1.390   5.324   6.101 -0.5808 -0.1708  0.2419
   57POPC  H11A 7522   1.405   5.428   6.137 -1.3684  0.1055 -0.2196
   57POPC  H11B 7523   1.283   5.295   6.099 -0.3583 -1.0024  0.3068
   57POPC     P 7524   1.535   5.435   5.905 -0.2021  0.0676  0.3108
   57POPC   O13 7525   1.674   5.386   5.926 -0.0355  0.3955 -0.0268
   57POPC   O14 7526   1.496   5.571   5.948 -0.4345  0.0705  0.0901
   57POPC   O12 7527   1.436   5.325   5.966 -0.0750  0.0112  0.4140
   57POPC   O11 7528   1.514   5.422   5.747  0.7845  0.1003  0.1755
   57POPC    C1 7529   1.582   5.327   5.664  0.3612  0.1640 -0.2434
   57POPC    HA 7530   1.507   5.294   5.589  0.7738  0.2935 -0.7204
   57POPC    HB 7531   1.588   5.230   5.718  0.9859 -0.4478 -1.3799
   57POPC    C2 7532   1.716   5.376   5.608  0.2845  0.5045 -0.1284
   57POPC    HS 7533   1.773   5.408   5.697  1.6539 -1.7861 -0.1404
   57POPC   O21 7534   1.683   5.497   5.540 -0.1183  0.5274  0.1067
   57POPC   C21 7535   1.790   5.576   5.549  0.2631  0.0075  0.1364
   57POPC   O22 7536   1.903   5.534   5.571  0.1357  0.0887  0.9401
   57POPC   C22 7537   1.752   5.715   5.500  0.1216 -0.1998 -0.3417
   57POPC   H2R 7538   1.783   5.795   5.570 -2.2236  0.0976  0.4046
   57POPC   H2S 7539   1.641   5.721   5.498  0.1078 -0.5743 -0.7974
   57POPC    C3 7540   1.779   5.276   5.509 -0.2134  0.4590 -0.3995
   57POPC    HX 7541   1.801   5.183   5.567 -1.8674  1.5783  2.1532
   57POPC    HY 7542   1.881   5.315   5.488 -0.1417  0.5998  0.1873
   57POPC   O31 7543   1.688   5.245   5.403 -0.2314 -0.2002 -0.1957
   57POPC   C31 7544   1.704   5.317   5.292 -0.0179  0.7519  0.4403
   57POPC   O32 7545   1.784   5.406   5.271  0.5744  0.0528 -0.3416
   57POPC   C32 7546   1.634   5.243   5.178  0.5540  0.2677  0.3999
   57POPC   H2X 7547   1.528   5.274   5.186 -0.2063 -1.9379 -0.8941
   57POPC   H2Y 7548   1.638   5.133   5.188 -0.9183  0.1233 -0.4371
   57POPC   C23 7549   1.806   5.735   5.358 -0.0080 -0.2510 -0.3977
   57POPC   H3R 7550   1.818   5.645   5.294  2.1458  1.1679 -2.0523
   57POPC   H3S 7551   1.912   5.763   5.380 -0.2278  0.2448  0.0453
   57POPC   C24 7552   1.740   5.846   5.275  0.0398 -0.2625 -0.4508
   57POPC   H4R 7553   1.733   5.935   5.341 -1.4956 -0.2106 -0.6733
   57POPC   H4S 7554   1.635   5.820   5.248 -1.5935  2.4720  2.8613
   57POPC   C25 7555   1.832   5.892   5.162 -0.0766  0.5970 -0.1982
   57POPC   H5R 7556   1.934   5.921   5.195  0.3891  1.0252 -1.9816
   57POPC   H5S 7557   1.794   5.986   5.116  1.4113  1.0485 -0.5038
   57POPC   C26 7558   1.853   5.787   5.053  0.7695  0.0358  0.4977
   57POPC   H6R 7559   1.758   5.733   5.032  0.5980  0.1844  0.8951
   57POPC   H6S 7560   1.916   5.708   5.099  0.5348 -0.8033 -0.5831
   57POPC   C27 7561   1.919   5.837   4.924 -0.4832 -0.0330 -0.1813
   57POPC   H7R 7562   2.017   5.867   4.966 -1.6663  3.1580  0.4938
   57POPC   H7S 7563   1.871   5.929   4.884  2.7725  0.9856 -1.9858
   57POPC   C28 7564   1.934   5.730   4.816 -0.3628 -0.3093  0.1070
   57POPC   H8R 7565   1.830   5.694   4.799 -1.2352  0.8354  2.8004
   57POPC   H8S 7566   2.003   5.650   4.850  1.1675  1.0563  0.2673
   57POPC   C29 7567   1.988   5.799   4.694  0.2438 -0.2173  0.4241
   57POPC   H91 7568   1.939   5.896   4.678  1.3495  0.2810  0.0235
   57POPC  C210 7569   2.079   5.747   4.610  0.0258 -0.2979  0.2366
   57POPC  H101 7570   2.088   5.798   4.512 -1.2860 -0.3459  0.0793
   57POPC  C211 7571   2.149   5.615   4.614  0.9622  0.1719 -0.3737
   57POPC  H11R 7572   2.068   5.539   4.620 -0.5218  1.7760  0.5928
   57POPC  H11S 7573   2.220   5.611   4.699  1.0197  0.4143 -0.4087
   57POPC  C212 7574   2.218   5.595   4.479  0.1535  0.1250 -0.7817
   57POPC  H12R 7575   2.286   5.682   4.464  0.9486  0.2518  3.0400
   57POPC  H12S 7576   2.142   5.607   4.399  0.5889  1.3982 -1.0126
   57POPC  C213 7577   2.295   5.465   4.456  0.7495  0.2613  0.3980
   57POPC  H13R 7578   2.219   5.386   4.436  0.0360  1.0041  0.1578
   57POPC  H13S 7579   2.351   5.436   4.547 -0.4615 -0.0005  1.0755
   57POPC  C214 7580   2.389   5.459   4.336  0.3447  0.1740  0.0858
   57POPC  H14R 7581   2.449   5.552   4.344 -1.9824  1.8550 -1.3402
   57POPC  H14S 7582   2.326   5.469   4.245  0.3897  1.2471  0.1703
   57POPC  C215 7583   2.486   5.341   4.328  0.6575  0.4029  0.4834
   57POPC  H15R 7584   2.435   5.253   4.284  1.2089 -0.8576  2.3466
   57POPC  H15S 7585   2.523   5.320   4.430  1.5659 -1.3566 -0.1811
   57POPC  C216 7586   2.608   5.368   4.238  0.2924  0.4356 -0.0060
   57POPC  H16R 7587   2.684   5.291   4.263  0.3473  0.7682  0.8906
   57POPC  H16S 7588   2.649   5.464   4.277  0.5442  0.7396 -1.0213
   57POPC  C217 7589   2.579   5.373   4.088 -0.0568  0.2583  0.0542
   57POPC  H17R 7590   2.499   5.448   4.073  0.6718  1.2193  0.9062
   57POPC  H17S 7591   2.539   5.273   4.061  0.1679 -0.8666  3.6103
   57POPC  C218 7592   2.707   5.397   4.008  0.1223  0.2544  0.3368
   57POPC  H18R 7593   2.744   5.500   4.026 -3.0688  1.1379  2.2180
   57POPC  H18S 7594   2.686   5.382   3.900  1.4338 -0.7396  0.2144
   57POPC  H18T 7595   2.791   5.328   4.031  1.2269  0.3782 -3.0441
   57POPC   C33 7596   1.678   5.285   5.037  0.0163 -0.4444  0.0194
   57POPC   H3X 7597   1.784   5.253   5.027  0.1638  0.5638 -1.7364
   57POPC   H3Y 7598   1.690   5.395   5.039  1.9218 -0.6623  1.7574
   57POPC   C34 7599   1.594   5.221   4.926  0.3705 -0.5584 -0.1842
   57POPC   H4X 7600   1.504   5.285   4.913 -0.7407 -1.9034  0.6665
   57POPC   H4Y 7601   1.576   5.118   4.965 -0.3801  0.0553  1.1190
   57POPC   C35 7602   1.673   5.218   4.795  0.3553 -0.2134 -0.2016
   57POPC   H5X 7603   1.615   5.143   4.737 -3.5244  1.8020  0.8837
   57POPC   H5Y 7604   1.774   5.179   4.822  0.4147  1.1140  1.5647
   57POPC   C36 7605   1.676   5.352   4.723  0.4409  0.0953  0.3700
   57POPC   H6X 7606   1.718   5.439   4.778  1.1063  0.1829 -0.2609
   57POPC   H6Y 7607   1.573   5.370   4.687  0.3314 -0.2788  0.5055
   57POPC   C37 7608   1.770   5.355   4.601 -0.0847 -0.2166 -0.0449
   57POPC   H7X 7609   1.757   5.266   4.536 -0.0688  0.5258 -1.0726
   57POPC   H7Y 7610   1.872   5.358   4.645 -0.4641  0.1278  0.8383
   57POPC   C38 7611   1.743   5.470   4.505 -0.8110 -0.6845 -0.4043
   57POPC   H8X 7612   1.793   5.560   4.548  0.3891 -2.5806  2.2748
   57POPC   H8Y 7613   1.632   5.479   4.509 -0.9487 -0.9922 -3.0047
   57POPC   C39 7614   1.802   5.460   4.365  0.0437 -0.2883 -0.0767
   57POPC   H9X 7615   1.750   5.374   4.317  0.2942 -1.4154  1.6498
   57POPC   H9Y 7616   1.909   5.434   4.383 -0.0568 -0.8366 -0.2604
   57POPC  C310 7617   1.783   5.584   4.277  0.0253 -0.4327 -0.2759
   57POPC  H10X 7618   1.814   5.677   4.331  1.0649 -0.0282 -1.5545
   57POPC  H10Y 7619   1.672   5.580   4.273  0.0207 -1.0085  0.3695
   57POPC  C311 7620   1.848   5.577   4.139 -0.1699  0.4884 -0.4158
   57POPC  H11X 7621   1.822   5.479   4.093 -2.6382  0.4471  0.9942
   57POPC  H11Y 7622   1.958   5.574   4.152 -0.2718 -0.0245  0.3251
   57POPC  C312 7623   1.798   5.700   4.063 -0.5379  0.2873 -0.5012
   57POPC  H12X 7624   1.832   5.793   4.114 -0.5049  0.8481 -1.5197
   57POPC  H12Y 7625   1.687   5.695   4.052 -0.4098 -1.4124 -1.1481
   57POPC  C313 7626   1.858   5.706   3.922  0.9906 -0.2552  0.1167
   57POPC  H13X 7627   1.795   5.670   3.838  0.5245  0.2098  0.2606
   57POPC  H13Y 7628   1.928   5.621   3.930 -0.4752 -1.5461 -0.5822
   57POPC  C314 7629   1.929   5.835   3.882 -0.3060  0.2553 -0.5811
   57POPC  H14X 7630   2.016   5.849   3.950 -0.6789 -0.0592 -0.0389
   57POPC  H14Y 7631   1.851   5.908   3.910 -1.2263  0.2918 -3.0664
   57POPC  C315 7632   1.969   5.853   3.735 -0.0467  0.0163 -0.5410
   57POPC  H15X 7633   2.028   5.946   3.722  1.8911 -1.0866  0.2201
   57POPC  H15Y 7634   1.878   5.863   3.671 -2.7331 -0.4070  3.0572
   57POPC  C316 7635   2.055   5.743   3.673  0.1306 -0.2460  0.1668
   57POPC  H16X 7636   2.145   5.734   3.737  1.2742 -0.1091 -1.4062
   57POPC  H16Y 7637   2.085   5.763   3.568  0.6067  0.3528  0.4085
   57POPC  H16Z 7638   2.005   5.644   3.678 -4.3235  1.9908  4.0310
   58POPC     N 7639   2.676   5.321   6.086 -0.3726 -0.1677 -0.0843
   58POPC   C12 7640   2.663   5.172   6.068 -0.4186 -0.1832  0.0778
   58POPC  H12A 7644   2.658   5.154   5.961 -2.1092  0.4231  0.0436
   58POPC  H12B 7645   2.567   5.143   6.108 -0.2815  2.3262  2.3444
   58POPC   C13 7641   2.550   5.393   6.042 -0.3586 -0.4004 -0.5064
   58POPC  H13A 7646   2.517   5.372   5.941  1.2111  4.3227 -2.1230
   58POPC  H13B 7647   2.470   5.363   6.107 -0.8755  0.3815 -0.7792
   58POPC  H13C 7648   2.584   5.496   6.045 -1.2937 -0.0373 -1.7863
   58POPC   C14 7642   2.714   5.348   6.229 -0.3012 -0.6404 -0.0146
   58POPC  H14A 7649   2.735   5.452   6.248  3.2519 -1.3231  0.2124
   58POPC  H14B 7650   2.629   5.321   6.290 -0.1822  0.7388  0.7775
   58POPC  H14C 7651   2.803   5.291   6.252  1.0085  0.9851 -0.8968
   58POPC   C15 7643   2.790   5.382   6.008  0.2049 -0.6338  0.3938
   58POPC  H15A 7652   2.752   5.379   5.907 -0.1590  0.5873  0.4857
   58POPC  H15B 7653   2.880   5.323   5.999  1.4491  1.0785  1.4281
   58POPC  H15C 7654   2.817   5.486   6.019  3.2603 -0.9720 -2.9202
   58POPC   C11 7655   2.774   5.082   6.124 -0.0230  0.3444  0.1479
   58POPC  H11A 7656   2.765   4.983   6.074 -4.1711 -0.6420  2.5805
   58POPC  H11B 7657   2.747   5.047   6.225 -1.1476 -0.7846 -0.5299
   58POPC     P 7658   3.018   5.057   6.193  0.0988  0.5715  0.4568
   58POPC   O13 7659   2.958   4.962   6.290 -0.2221 -0.2305 -0.5221
   58POPC   O14 7660   3.119   5.153   6.243  0.6942 -0.0048  0.3652
   58POPC   O12 7661   2.903   5.142   6.122  0.0183  0.2561  0.2095
   58POPC   O11 7662   3.072   4.967   6.072 -0.5098  0.4452  0.2799
   58POPC    C1 7663   3.170   5.024   5.986  0.0158 -0.0700  0.5387
   58POPC    HA 7664   3.245   4.947   5.956  0.4033 -0.3447  2.1690
   58POPC    HB 7665   3.228   5.105   6.035 -0.5198 -0.6876  2.2213
   58POPC    C2 7666   3.113   5.085   5.857  0.7601 -0.0962  0.1936
   58POPC    HS 7667   3.059   5.176   5.890  1.9309  0.6127  0.2135
   58POPC   O21 7668   3.014   5.000   5.798  0.4130  0.4604 -0.0340
   58POPC   C21 7669   2.905   5.061   5.752  0.1763  0.2751  0.2748
   58POPC   O22 7670   2.886   5.181   5.765 -0.5689  0.1416  0.4145
   58POPC   C22 7671   2.815   4.969   5.671 -0.1007  0.4245  0.4133
   58POPC   H2R 7672   2.709   4.980   5.702 -0.5025 -2.5184  0.1916
   58POPC   H2S 7673   2.846   4.862   5.676  0.3160  0.5833  1.4960
   58POPC    C3 7674   3.227   5.124   5.761  0.5346 -0.9270 -0.4159
   58POPC    HX 7675   3.306   5.046   5.748  1.9222  0.5955 -1.2971
   58POPC    HY 7676   3.295   5.203   5.799  1.2864 -0.7407 -2.1109
   58POPC   O31 7677   3.184   5.151   5.627  0.2802  0.9749  0.0439
   58POPC   C31 7678   3.147   5.277   5.603 -0.2215  0.7672 -0.2503
   58POPC   O32 7679   3.165   5.368   5.682  0.3121  0.1302  0.3658
   58POPC   C32 7680   3.089   5.280   5.462 -0.4378  0.1383 -0.1802
   58POPC   H2X 7681   2.985   5.241   5.455  0.3801 -1.9132 -1.1214
   58POPC   H2Y 7682   3.157   5.228   5.392  1.5391  1.3303  0.8189
   58POPC   C23 7683   2.833   5.010   5.525  0.1393  0.0302  0.3318
   58POPC   H3R 7684   2.937   5.033   5.496  0.4123 -1.7197 -0.1332
   58POPC   H3S 7685   2.778   5.106   5.517  1.7194  1.0111  1.0509
   58POPC   C24 7686   2.758   4.918   5.428  0.5824  0.0595 -0.0371
   58POPC   H4R 7687   2.654   4.908   5.464  0.9587  1.0108  1.3709
   58POPC   H4S 7688   2.806   4.817   5.428  0.1606 -0.1505  1.1340
   58POPC   C25 7689   2.767   4.968   5.284 -0.4868 -0.1679 -0.1853
   58POPC   H5R 7690   2.730   5.072   5.289 -0.7425 -0.3514  2.2239
   58POPC   H5S 7691   2.706   4.901   5.219  2.4379 -2.9245 -0.2065
   58POPC   C26 7692   2.909   4.979   5.229 -0.0274  0.7048  1.1547
   58POPC   H6R 7693   2.968   4.886   5.213  0.9968  1.0413  2.8536
   58POPC   H6S 7694   2.983   5.035   5.290 -0.8057  0.0706  2.7034
   58POPC   C27 7695   2.903   5.058   5.098 -0.7545 -0.6508  0.3573
   58POPC   H7R 7696   3.006   5.073   5.060 -1.1560 -2.0715 -1.3533
   58POPC   H7S 7697   2.868   5.161   5.119  1.9002 -0.2699  3.2790
   58POPC   C28 7698   2.832   4.991   4.980  0.3121 -0.2071 -0.5415
   58POPC   H8R 7699   2.735   4.942   5.003  0.5588  0.7686  2.8356
   58POPC   H8S 7700   2.907   4.916   4.946  0.4290 -1.5927  2.6574
   58POPC   C29 7701   2.807   5.089   4.869  0.0353  0.0407 -0.2604
   58POPC   H91 7702   2.709   5.140   4.871  0.4342  0.8956 -1.7684
   58POPC  C210 7703   2.890   5.137   4.776  0.1669 -0.2080 -0.2718
   58POPC  H101 7704   2.845   5.198   4.696 -2.2294 -1.4272  0.1099
   58POPC  C211 7705   3.036   5.109   4.749  0.2927  0.1665  0.0225
   58POPC  H11R 7706   3.080   5.041   4.825 -0.3405 -1.3816 -0.9953
   58POPC  H11S 7707   3.117   5.183   4.731  0.9127 -0.7342 -0.9325
   58POPC  C212 7708   3.025   5.017   4.627  0.0144 -0.2717  0.3784
   58POPC  H12R 7709   2.947   4.939   4.642 -0.5914  0.3119  0.2878
   58POPC  H12S 7710   3.118   4.956   4.628  1.1155  1.3627 -0.2642
   58POPC  C213 7711   2.995   5.085   4.494  0.3406 -0.1753  0.3548
   58POPC  H13R 7712   2.914   5.159   4.509 -0.1981 -1.2470  2.9673
   58POPC  H13S 7713   2.954   5.012   4.421 -0.5431  1.3321 -0.6998
   58POPC  C214 7714   3.107   5.164   4.424 -0.2155 -0.0936 -0.4526
   58POPC  H14R 7715   3.193   5.096   4.411  1.2348  1.9780 -1.8552
   58POPC  H14S 7716   3.142   5.247   4.490 -0.7056  0.6052 -1.0635
   58POPC  C215 7717   3.083   5.224   4.286  0.3401  0.1410 -0.4460
   58POPC  H15R 7718   3.138   5.321   4.276  0.8185  0.2214  2.7205
   58POPC  H15S 7719   2.974   5.238   4.268  0.1964  0.1401  0.4303
   58POPC  C216 7720   3.139   5.135   4.174 -0.2780 -0.4793 -0.2655
   58POPC  H16R 7721   3.121   5.027   4.191  1.3402 -0.7103  0.1199
   58POPC  H16S 7722   3.249   5.153   4.180  0.3393 -3.6809 -1.0818
   58POPC  C217 7723   3.101   5.185   4.035 -0.0225  0.3750 -0.0390
   58POPC  H17R 7724   3.105   5.296   4.030  1.0651  0.4901  2.6151
   58POPC  H17S 7725   3.004   5.140   4.003  0.7643 -1.1424 -0.3524
   58POPC  C218 7726   3.197   5.129   3.929  0.0310  0.0408  0.1860
   58POPC  H18R 7727   3.177   5.024   3.897  2.0807 -0.4194  0.3742
   58POPC  H18S 7728   3.303   5.141   3.958  0.3435 -0.5549 -0.6953
   58POPC  H18T 7729   3.185   5.195   3.841  1.7175  1.1924  0.8046
   58POPC   C33 7730   3.078   5.429   5.429 -0.2437  0.2155  0.1057
   58POPC   H3X 7731   3.181   5.468   5.441 -0.6898  0.9242  1.8026
   58POPC   H3Y 7732   3.011   5.492   5.491 -2.7109  0.6110 -2.8451
   58POPC   C34 7733   3.030   5.464   5.288  0.6389  0.2044 -0.2015
   58POPC   H4X 7734   3.030   5.575   5.284  1.0817  0.2450  0.8217
   58POPC   H4Y 7735   2.924   5.432   5.275 -0.2025  3.4315 -1.9218
   58POPC   C35 7736   3.107   5.400   5.173  1.1506 -0.5606  0.5586
   58POPC   H5X 7737   3.083   5.292   5.158 -1.3370  0.1330 -0.7921
   58POPC   H5Y 7738   3.210   5.401   5.214  0.5722 -0.0421  2.0165
   58POPC   C36 7739   3.111   5.477   5.041  0.1894 -0.5171  0.5482
   58POPC   H6X 7740   3.101   5.586   5.062 -1.4244 -1.2233  3.6576
   58POPC   H6Y 7741   3.026   5.461   4.971  1.3893 -0.6629 -0.9027
   58POPC   C37 7742   3.228   5.440   4.949 -0.1344 -0.7176  0.2163
   58POPC   H7X 7743   3.235   5.330   4.941  0.7108 -0.7986  1.7906
   58POPC   H7Y 7744   3.324   5.473   4.994 -0.7944  0.3863  0.8461
   58POPC   C38 7745   3.221   5.493   4.805  0.5373 -0.2312  0.3587
   58POPC   H8X 7746   3.210   5.603   4.793  1.1679 -0.1170  0.8086
   58POPC   H8Y 7747   3.125   5.451   4.768 -1.1097  5.1839 -1.9718
   58POPC   C39 7748   3.327   5.434   4.712  0.0905  0.2608 -0.4671
   58POPC   H9X 7749   3.332   5.323   4.717  0.5366  0.2133 -1.7552
   58POPC   H9Y 7750   3.427   5.472   4.744  1.2658 -3.1606  0.1153
   58POPC  C310 7751   3.312   5.477   4.566 -0.4091  0.1573 -0.4484
   58POPC  H10X 7752   3.285   5.584   4.557  0.2331  0.0928 -3.8454
   58POPC  H10Y 7753   3.231   5.419   4.518 -1.3527 -0.2883  1.6186
   58POPC  C311 7754   3.439   5.450   4.485  0.0444  0.6573  0.0872
   58POPC  H11X 7755   3.455   5.341   4.492 -1.2801  0.2610 -2.1701
   58POPC  H11Y 7756   3.529   5.509   4.513  1.1029 -0.3730 -1.0590
   58POPC  C312 7757   3.414   5.484   4.337 -0.0294  1.1414  0.2105
   58POPC  H12X 7758   3.384   5.591   4.331 -0.7829  0.9868  1.1317
   58POPC  H12Y 7759   3.329   5.427   4.295  0.6989  0.4730 -0.3580
   58POPC  C313 7760   3.530   5.472   4.238 -0.1564 -0.1493  0.2176
   58POPC  H13X 7761   3.507   5.548   4.160  1.4465 -0.7188 -0.8319
   58POPC  H13Y 7762   3.530   5.369   4.196  0.4195 -0.9976  2.2546
   58POPC  C314 7763   3.667   5.506   4.297 -0.1024 -0.2360  0.1434
   58POPC  H14X 7764   3.706   5.429   4.366  2.0731  0.8735  0.2043
   58POPC  H14Y 7765   3.667   5.609   4.339  0.9583 -0.8475  1.6709
   58POPC  C315 7766   3.761   5.518   4.176  0.3821  0.0524  0.5470
   58POPC  H15X 7767   3.840   5.587   4.214  1.7701 -0.5524 -1.1978
   58POPC  H15Y 7768   3.712   5.565   4.088  1.5020  0.1876 -0.0073
   58POPC  C316 7769   3.818   5.384   4.132 -0.4022 -0.0094 -0.2848
   58POPC  H16X 7770   3.863   5.326   4.215 -0.5300 -0.9266 -0.8467
   58POPC  H16Y 7771   3.889   5.399   4.048  1.5283 -0.1300  1.2895
   58POPC  H16Z 7772   3.730   5.321   4.104 -0.9432  0.9635 -0.8093
   59POPC     N 7773   7.181   1.671   6.149  0.0506  0.2405  0.0813
   59POPC   C12 7774   7.074   1.628   6.246  0.1306  0.2836  0.1864
   59POPC  H12A 7778   7.095   1.674   6.342  1.4925 -0.5382  0.2995
   59POPC  H12B 7779   7.087   1.523   6.267 -1.5085  0.0693  0.2129
   59POPC   C13 7775   7.153   1.806   6.086  0.3310 -0.0914 -0.7648
   59POPC  H13A 7780   7.230   1.835   6.016  0.9146  1.1055  0.3620
   59POPC  H13B 7781   7.058   1.798   6.035  0.7225 -0.2966 -1.4708
   59POPC  H13C 7782   7.148   1.885   6.159  1.8673  0.4034 -1.1723
   59POPC   C14 7776   7.311   1.684   6.224  0.1022 -0.4935  0.1192
   59POPC  H14A 7783   7.311   1.755   6.305  0.3048  1.6179 -1.6876
   59POPC  H14B 7784   7.338   1.588   6.266 -0.4935  0.7784  3.6047
   59POPC  H14C 7785   7.380   1.717   6.148 -2.2329 -0.3846 -2.0245
   59POPC   C15 7777   7.203   1.573   6.036  0.3721 -0.5370  0.8174
   59POPC  H15A 7786   7.291   1.610   5.986 -0.5991  0.6614 -0.0411
   59POPC  H15B 7787   7.118   1.575   5.969  1.5056  3.8828 -0.6251
   59POPC  H15C 7788   7.226   1.475   6.076  1.2788 -1.3798 -1.6616
   59POPC   C11 7789   6.928   1.666   6.222  0.1837  0.0212 -0.5440
   59POPC  H11A 7790   6.896   1.772   6.216  1.0711  0.3443  0.3308
   59POPC  H11B 7791   6.880   1.639   6.318  0.6620  0.2216 -0.2504
   59POPC     P 7792   6.813   1.665   5.993  0.0264  0.1369 -0.5174
   59POPC   O13 7793   6.926   1.719   5.915  0.0169 -0.1088 -0.7022
   59POPC   O14 7794   6.705   1.759   6.030  0.8308  0.7178  0.3885
   59POPC   O12 7795   6.865   1.585   6.122 -0.3488  0.1797 -0.3382
   59POPC   O11 7796   6.741   1.549   5.910  0.0523 -0.1267 -0.1724
   59POPC    C1 7797   6.821   1.447   5.849  0.1041  0.1183 -0.5128
   59POPC    HA 7798   6.771   1.348   5.840 -0.4913  0.4597 -1.0996
   59POPC    HB 7799   6.915   1.416   5.899 -1.0225  0.4822  1.9032
   59POPC    C2 7800   6.870   1.487   5.708  0.4579  0.9347 -0.1610
   59POPC    HS 7801   6.918   1.585   5.690 -0.3382  1.5459  1.0185
   59POPC   O21 7802   6.765   1.474   5.612  0.3757  0.6429 -0.0341
   59POPC   C21 7803   6.691   1.584   5.595 -0.0029  0.3484 -0.2864
   59POPC   O22 7804   6.724   1.697   5.627  0.3236  0.0946  0.2886
   59POPC   C22 7805   6.556   1.544   5.536 -0.1629  0.1788  0.1859
   59POPC   H2R 7806   6.467   1.565   5.598 -0.6535 -0.2784 -0.3516
   59POPC   H2S 7807   6.556   1.433   5.527  0.1678  0.2282 -0.4821
   59POPC    C3 7808   6.987   1.398   5.661 -0.2298  0.0270 -0.1803
   59POPC    HX 7809   6.971   1.298   5.706 -1.0393  1.0231  1.8392
   59POPC    HY 7810   7.076   1.443   5.711 -1.8376  2.4407  0.6449
   59POPC   O31 7811   7.011   1.393   5.520  0.3942 -0.6399 -0.0503
   59POPC   C31 7812   7.139   1.389   5.484  0.3218 -0.3889 -0.3352
   59POPC   O32 7813   7.229   1.367   5.564 -0.0083 -0.4794  0.0090
   59POPC   C32 7814   7.158   1.386   5.333 -0.3283  0.3506 -0.4307
   59POPC   H2X 7815   7.086   1.464   5.299 -2.1327 -1.5595 -1.0985
   59POPC   H2Y 7816   7.120   1.292   5.288  0.9630 -0.0405 -0.7258
   59POPC   C23 7817   6.532   1.612   5.401 -0.0051 -0.3276 -0.0989
   59POPC   H3R 7818   6.619   1.595   5.334 -1.4317  1.7087 -2.5649
   59POPC   H3S 7819   6.512   1.721   5.410 -1.3446 -0.8118  3.8994
   59POPC   C24 7820   6.415   1.547   5.326 -0.0431 -0.3785  0.0019
   59POPC   H4R 7821   6.332   1.537   5.400  1.8886 -1.0319  2.1444
   59POPC   H4S 7822   6.441   1.446   5.289 -3.2424 -0.5595 -1.9463
   59POPC   C25 7823   6.367   1.640   5.214 -0.0422 -0.4971 -0.0966
   59POPC   H5R 7824   6.330   1.737   5.254 -2.3030 -1.3636 -0.0248
   59POPC   H5S 7825   6.287   1.588   5.157 -0.5030  0.5450 -0.4183
   59POPC   C26 7826   6.465   1.658   5.099  0.4043 -0.2243  0.3220
   59POPC   H6R 7827   6.479   1.554   5.061 -0.2441 -0.1147 -0.2366
   59POPC   H6S 7828   6.559   1.701   5.140  0.6214 -0.7192  0.3525
   59POPC   C27 7829   6.422   1.737   4.975  0.0044 -0.7101  0.1468
   59POPC   H7R 7830   6.379   1.835   5.007 -1.7532 -1.6879  0.8497
   59POPC   H7S 7831   6.329   1.696   4.931  0.9647 -2.1051 -0.5961
   59POPC   C28 7832   6.521   1.742   4.859  0.0160 -0.0782  0.1805
   59POPC   H8R 7833   6.558   1.640   4.834  2.0197  0.4486  0.8834
   59POPC   H8S 7834   6.608   1.787   4.911  0.6113 -2.1778  1.0552
   59POPC   C29 7835   6.466   1.822   4.745  0.1021  0.1335  0.2878
   59POPC   H91 7836   6.416   1.768   4.663  0.0820 -1.2025  1.1765
   59POPC  C210 7837   6.487   1.950   4.709 -0.7699  0.3523  0.5680
   59POPC  H101 7838   6.431   1.991   4.623 -0.5954  0.1506  0.3566
   59POPC  C211 7839   6.572   2.048   4.783  0.1053 -0.1019  0.1668
   59POPC  H11R 7840   6.666   2.000   4.819 -0.0874  0.3739  1.3532
   59POPC  H11S 7841   6.510   2.088   4.866 -1.9498  1.9949 -2.2953
   59POPC  C212 7842   6.594   2.170   4.693  0.6003  0.2712  0.7852
   59POPC  H12R 7843   6.501   2.227   4.670  1.2796  0.7321 -0.8721
   59POPC  H12S 7844   6.636   2.126   4.600 -2.7849 -1.3419 -0.0753
   59POPC  C213 7845   6.698   2.262   4.757  0.9722  0.0850  0.4447
   59POPC  H13R 7846   6.747   2.320   4.675  0.4123 -1.3411 -0.9209
   59POPC  H13S 7847   6.776   2.193   4.796  0.8027 -0.5411 -0.3000
   59POPC  C214 7848   6.630   2.356   4.856  0.1969  0.2291 -0.2239
   59POPC  H14R 7849   6.547   2.298   4.902  0.6151  0.4273  0.7867
   59POPC  H14S 7850   6.587   2.443   4.801 -0.0176  0.3123  0.0715
   59POPC  C215 7851   6.730   2.404   4.961  0.1998  0.0147 -0.1304
   59POPC  H15R 7852   6.798   2.489   4.936 -0.8035  0.5861 -0.9360
   59POPC  H15S 7853   6.804   2.327   4.993  1.2272  0.8424 -0.4821
   59POPC  C216 7854   6.663   2.454   5.088  0.0170 -0.7746  0.0870
   59POPC  H16R 7855   6.589   2.381   5.127 -0.9226 -1.6665 -3.2328
   59POPC  H16S 7856   6.614   2.543   5.044  2.3369  0.2679 -0.4845
   59POPC  C217 7857   6.770   2.495   5.190 -0.5801 -0.1930  0.4836
   59POPC  H17R 7858   6.862   2.539   5.147  0.3580 -0.3917  2.2556
   59POPC  H17S 7859   6.802   2.408   5.251  1.3949  0.0540 -0.1705
   59POPC  C218 7860   6.727   2.586   5.305  0.4872 -0.1166  0.8238
   59POPC  H18R 7861   6.643   2.542   5.363  2.1640 -0.7649  2.8337
   59POPC  H18S 7862   6.704   2.689   5.271 -0.3897 -0.2968  0.8721
   59POPC  H18T 7863   6.809   2.607   5.378  0.7316  2.0105 -0.0463
   59POPC   C33 7864   7.300   1.425   5.292 -0.0562  0.1998  0.3602
   59POPC   H3X 7865   7.362   1.335   5.311  0.7367  1.2038  2.6774
   59POPC   H3Y 7866   7.332   1.510   5.357 -0.8119  1.7114 -1.1915
   59POPC   C34 7867   7.319   1.473   5.148 -0.2791 -0.6928  0.0362
   59POPC   H4X 7868   7.424   1.506   5.139 -1.1749  3.6298  3.7588
   59POPC   H4Y 7869   7.251   1.559   5.131 -2.3021 -2.7655 -3.1143
   59POPC   C35 7870   7.273   1.361   5.054 -0.2936 -0.4920 -0.1946
   59POPC   H5X 7871   7.162   1.358   5.053 -0.2930 -0.6256 -2.0246
   59POPC   H5Y 7872   7.318   1.265   5.087  3.6532  1.4148  0.2910
   59POPC   C36 7873   7.320   1.379   4.909  0.7488  0.0272  0.2064
   59POPC   H6X 7874   7.273   1.293   4.856 -0.0524 -0.3114  1.4465
   59POPC   H6Y 7875   7.428   1.358   4.890  0.0996 -1.3331 -2.0817
   59POPC   C37 7876   7.283   1.519   4.860 -0.0080 -0.0583  0.5312
   59POPC   H7X 7877   7.331   1.594   4.927 -1.9354  1.2147  0.5368
   59POPC   H7Y 7878   7.173   1.508   4.874 -0.6986  1.8290 -2.9596
   59POPC   C38 7879   7.320   1.548   4.715 -0.7213 -0.1179  0.3342
   59POPC   H8X 7880   7.262   1.638   4.684 -1.2120 -1.4650 -2.9055
   59POPC   H8Y 7881   7.275   1.464   4.658 -1.7441  0.5236  0.1937
   59POPC   C39 7882   7.468   1.568   4.682 -0.7301 -0.1325  0.2778
   59POPC   H9X 7883   7.478   1.534   4.576  0.3890  0.7865  0.0671
   59POPC   H9Y 7884   7.536   1.503   4.741  0.2671  0.6457  0.0049
   59POPC  C310 7885   7.511   1.715   4.685 -0.4994 -0.1972  0.1277
   59POPC  H10X 7886   7.539   1.742   4.789 -1.2890 -0.5867  0.4402
   59POPC  H10Y 7887   7.428   1.779   4.648 -0.4541 -0.0108  0.3499
   59POPC  C311 7888   7.628   1.733   4.588 -0.6960  0.0695 -0.0612
   59POPC  H11X 7889   7.618   1.691   4.486  0.4218  0.4779 -0.3556
   59POPC  H11Y 7890   7.714   1.675   4.629 -0.9959 -0.6220 -0.4001
   59POPC  C312 7891   7.682   1.875   4.573 -0.1951 -0.1101  0.0223
   59POPC  H12X 7892   7.605   1.945   4.533 -0.0294 -0.2589 -0.5539
   59POPC  H12Y 7893   7.760   1.872   4.493  2.1924 -1.7111  2.3090
   59POPC  C313 7894   7.749   1.929   4.700  0.5828 -0.1809 -0.3539
   59POPC  H13X 7895   7.812   1.848   4.743 -0.7304 -0.5155  0.9876
   59POPC  H13Y 7896   7.673   1.953   4.777  2.0398 -2.9408  2.0428
   59POPC  C314 7897   7.844   2.047   4.680 -0.2546  0.5794  0.1055
   59POPC  H14X 7898   7.939   2.016   4.631  1.4202  2.8757  1.8284
   59POPC  H14Y 7899   7.874   2.085   4.780  0.0179  3.2330 -0.9275
   59POPC  C315 7900   7.772   2.160   4.606 -0.3182 -0.1183 -0.9190
   59POPC  H15X 7901   7.679   2.172   4.667  1.5551  0.5309  1.9126
   59POPC  H15Y 7902   7.745   2.116   4.508 -0.5749  1.3384 -1.5119
   59POPC  C316 7903   7.848   2.292   4.589 -0.5402  0.0915 -0.3319
   59POPC  H16X 7904   7.786   2.376   4.553 -0.6194 -0.5880 -1.8282
   59POPC  H16Y 7905   7.927   2.275   4.512 -2.9017 -0.8283 -2.6449
   59POPC  H16Z 7906   7.887   2.319   4.689  0.5638 -1.7386 -0.2561
   60POPC     N 7907   3.090   7.945   6.183  0.1168 -0.0322  0.1957
   60POPC   C12 7908   2.964   7.948   6.266  0.1193 -0.6534  0.2177
   60POPC  H12A 7912   2.919   0.083   6.280 -0.4895 -0.9796  0.8834
   60POPC  H12B 7913   3.006   7.916   6.360 -1.2513 -1.9858  0.4016
   60POPC   C13 7909   3.058   0.038   6.046  0.4508  0.0992  0.1535
   60POPC  H13A 7914   3.146   0.017   5.988  0.9752 -1.2843  1.4223
   60POPC  H13B 7915   2.975   7.944   6.005  0.1388  1.4249 -1.1628
   60POPC  H13C 7916   3.030   0.142   6.045  2.7431  0.7256  0.1123
   60POPC   C14 7910   3.194   0.066   6.255  0.0438 -0.1455  0.4789
   60POPC  H14A 7917   3.205   0.014   6.349 -1.7920 -1.0696  0.2090
   60POPC  H14B 7918   3.290   0.066   6.205  0.2236  1.4096  0.8146
   60POPC  H14C 7919   3.151   0.158   6.291 -1.9804 -1.1632  0.7521
   60POPC   C15 7911   3.142   7.805   6.168  0.0945  0.0670 -0.8364
   60POPC  H15A 7920   3.072   7.744   6.112  1.2572 -0.4358 -1.7694
   60POPC  H15B 7921   3.159   7.760   6.264 -1.6784 -0.9876 -0.9786
   60POPC  H15C 7922   3.237   7.801   6.117 -1.2379 -0.0047 -3.4253
   60POPC   C11 7923   2.850   7.854   6.224 -0.3801 -0.0337  0.1681
   60POPC  H11A 7924   2.768   7.860   6.298 -0.2216  1.6146  0.2090
   60POPC  H11B 7925   2.880   7.746   6.225 -1.9520 -0.4799  0.7314
   60POPC     P 7926   2.663   7.947   6.071 -0.1527  0.2395  0.0925
   60POPC   O13 7927   2.689   0.086   5.966 -0.1638 -0.1216 -0.2993
   60POPC   O14 7928   2.607   0.042   6.195 -0.1748  0.5437 -0.0385
   60POPC   O12 7929   2.805   7.876   6.091 -0.5662 -0.5836  0.1358
   60POPC   O11 7930   2.554   7.843   6.017  0.3204 -0.3280  0.2185
   60POPC    C1 7931   2.587   7.757   5.909  0.3875 -0.2668  0.1892
   60POPC    HA 7932   2.506   7.682   5.923 -0.6554  1.1474  1.9054
   60POPC    HB 7933   2.685   7.706   5.923  0.1627 -0.5459  0.7523
   60POPC    C2 7934   2.583   7.826   5.771 -0.4120 -0.1427  0.2714
   60POPC    HS 7935   2.690   7.849   5.750  0.0126 -3.2617 -1.2283
   60POPC   O21 7936   2.494   7.937   5.782 -0.1699  0.0636  0.1310
   60POPC   C21 7937   2.532   0.084   5.716  0.3150  0.0091  0.2483
   60POPC   O22 7938   2.643   0.100   5.666  0.0884  0.6682 -0.0552
   60POPC   C22 7939   2.414   0.178   5.697  0.3656 -0.0565 -0.4347
   60POPC   H2R 7940   2.461   0.278   5.707 -1.1925  0.6156  0.3064
   60POPC   H2S 7941   2.342   0.167   5.782 -1.3129  1.9155 -1.5519
   60POPC    C3 7942   2.539   7.728   5.661 -0.3146  0.4488 -0.2953
   60POPC    HX 7943   2.447   7.687   5.706 -0.5121  0.9677 -0.2249
   60POPC    HY 7944   2.615   7.647   5.655 -0.1278  0.6562 -0.7554
   60POPC   O31 7945   2.499   7.789   5.538 -0.7166 -0.3431 -0.5611
   60POPC   C31 7946   2.589   7.797   5.440 -0.1426 -0.2892 -0.0329
   60POPC   O32 7947   2.702   7.755   5.459 -0.0961  0.0267  0.3870
   60POPC   C32 7948   2.538   7.863   5.313 -0.0153  0.0842  0.1071
   60POPC   H2X 7949   2.603   7.945   5.277 -1.8417  0.6853 -1.9544
   60POPC   H2Y 7950   2.443   7.918   5.334  1.0291  2.3618 -0.9662
   60POPC   C23 7951   2.370   0.141   5.555  0.4020 -0.3397 -0.3724
   60POPC   H3R 7952   2.263   0.170   5.560  1.0285  2.4016 -1.7623
   60POPC   H3S 7953   2.385   0.034   5.529 -0.3737 -1.1691  2.3212
   60POPC   C24 7954   2.446   0.228   5.456  0.3990  0.3342  0.2104
   60POPC   H4R 7955   2.547   0.181   5.454 -0.8374 -2.3813  0.1790
   60POPC   H4S 7956   2.451   0.333   5.492 -0.8078  0.6622 -0.5523
   60POPC   C25 7957   2.368   0.235   5.325 -0.1688  0.6675  0.5672
   60POPC   H5R 7958   2.268   0.284   5.338 -1.1751 -1.4927  1.1894
   60POPC   H5S 7959   2.342   0.130   5.300 -0.4165  0.7414  0.5009
   60POPC   C26 7960   2.454   0.289   5.211 -0.1826 -0.3203  0.0815
   60POPC   H6R 7961   2.534   0.214   5.194  2.5297  2.0231  1.9580
   60POPC   H6S 7962   2.495   0.379   5.262  0.5423 -1.0783  0.8571
   60POPC   C27 7963   2.375   0.311   5.082 -0.4352  0.9536  0.4447
   60POPC   H7R 7964   2.341   0.416   5.071 -1.1447  0.5114 -1.8994
   60POPC   H7S 7965   2.282   0.250   5.074 -0.3740  0.6597  1.7642
   60POPC   C28 7966   2.458   0.281   4.957 -0.7566  0.6091  0.3120
   60POPC   H8R 7967   2.478   0.174   4.977 -1.4518  0.3002 -0.6439
   60POPC   H8S 7968   2.548   0.347   4.955  0.9528 -1.6758 -0.0785
   60POPC   C29 7969   2.380   0.312   4.833 -0.0750  0.0794 -0.2493
   60POPC   H91 7970   2.271   0.300   4.844 -0.2645  2.2956  0.4916
   60POPC  C210 7971   2.415   0.363   4.714  0.4908  0.1946 -0.0319
   60POPC  H101 7972   2.345   0.360   4.630  0.5107  3.5306 -0.2235
   60POPC  C211 7973   2.556   0.398   4.674  0.4687  0.1558 -0.1455
   60POPC  H11R 7974   2.619   0.414   4.764  0.0572  1.1429 -0.0372
   60POPC  H11S 7975   2.552   0.502   4.636 -2.3303  2.0632  4.9351
   60POPC  C212 7976   2.613   0.313   4.560  0.5103 -0.0233  0.0095
   60POPC  H12R 7977   2.556   0.318   4.465  1.3624 -2.8873 -0.7036
   60POPC  H12S 7978   2.605   0.209   4.601 -2.0473  0.2295  0.2282
   60POPC  C213 7979   2.762   0.342   4.537  0.6195 -0.2111  0.4558
   60POPC  H13R 7980   2.791   0.248   4.485  0.0075  0.7858 -1.7675
   60POPC  H13S 7981   2.819   0.354   4.631  1.5186  3.1920 -0.4608
   60POPC  C214 7982   2.799   0.458   4.445  0.3611 -0.4447  0.0545
   60POPC  H14R 7983   2.802   0.555   4.499 -1.9264 -1.0781  1.3792
   60POPC  H14S 7984   2.716   0.474   4.373  1.4065  0.4255 -0.9797
   60POPC  C215 7985   2.933   0.446   4.371  0.1425 -0.1951 -0.3834
   60POPC  H15R 7986   2.945   0.532   4.301  2.8642  0.2353  0.5757
   60POPC  H15S 7987   2.934   0.354   4.309  2.3727 -0.8442  0.5524
   60POPC  C216 7988   3.059   0.435   4.456 -0.1102 -0.5745 -0.0557
   60POPC  H16R 7989   3.062   0.340   4.514  2.9364 -0.0234  0.7968
   60POPC  H16S 7990   3.080   0.523   4.521  1.7311 -0.7742 -0.3362
   60POPC  C217 7991   3.183   0.416   4.369  0.2884  0.3123  0.3148
   60POPC  H17R 7992   3.196   0.509   4.308 -0.4513 -0.0875 -0.4544
   60POPC  H17S 7993   3.177   0.326   4.305  0.5289 -0.2381  1.0645
   60POPC  C218 7994   3.305   0.402   4.460 -0.3818 -0.6242  1.0702
   60POPC  H18R 7995   3.314   0.302   4.509 -1.6713 -1.0584  0.4463
   60POPC  H18S 7996   3.311   0.485   4.533 -1.8539  0.1422  0.3304
   60POPC  H18T 7997   3.395   0.414   4.396 -0.4883 -3.9189  0.1751
   60POPC   C33 7998   2.517   7.760   5.202 -1.0335  0.5659 -0.1553
   60POPC   H3X 7999   2.433   7.692   5.228 -1.3793  1.3878  0.9027
   60POPC   H3Y 8000   2.611   7.702   5.195  0.3526  2.7249  0.0495
   60POPC   C34 8001   2.479   7.827   5.069 -0.5194  0.1487 -0.5171
   60POPC   H4X 8002   2.553   7.905   5.042 -1.1700  0.9986  0.1493
   60POPC   H4Y 8003   2.383   7.881   5.086  0.6560  1.8539  0.9284
   60POPC   C35 8004   2.478   7.732   4.949 -0.5447 -0.3811 -0.0997
   60POPC   H5X 8005   2.435   7.631   4.968  0.5000 -1.4676 -3.2015
   60POPC   H5Y 8006   2.584   7.706   4.928  0.1635  1.5057  1.0174
   60POPC   C36 8007   2.405   7.790   4.827  0.1243  0.0758 -0.2808
   60POPC   H6X 8008   2.462   7.877   4.788  1.9128 -2.3926 -3.3659
   60POPC   H6Y 8009   2.309   7.820   4.874 -0.7726 -2.9609 -0.0365
   60POPC   C37 8010   2.383   7.686   4.718 -0.9224 -0.2296  0.2194
   60POPC   H7X 8011   2.332   7.594   4.753  1.6384 -1.0854  1.7887
   60POPC   H7Y 8012   2.485   7.664   4.681 -0.7317 -2.7596  2.1235
   60POPC   C38 8013   2.299   7.747   4.605 -0.2359  0.9508  0.3401
   60POPC   H8X 8014   2.328   7.845   4.563  0.7655  0.5331  0.0514
   60POPC   H8Y 8015   2.198   7.775   4.642 -1.5603 -1.1829 -1.5636
   60POPC   C39 8016   2.258   7.649   4.495 -0.0258  0.5637  0.6080
   60POPC   H9X 8017   2.197   7.572   4.547  1.1535  0.0213  1.2194
   60POPC   H9Y 8018   2.350   7.596   4.460 -0.1954  1.4283 -1.2160
   60POPC  C310 8019   2.172   7.704   4.381 -0.1918  0.5294  0.7181
   60POPC  H10X 8020   2.075   7.731   4.428 -0.9420  0.1724 -0.6120
   60POPC  H10Y 8021   2.168   7.617   4.312  0.8766 -0.0294  1.3398
   60POPC  C311 8022   2.245   7.821   4.316  0.2989 -0.1631  0.0096
   60POPC  H11X 8023   2.355   7.807   4.324  0.2397 -1.0589 -0.7003
   60POPC  H11Y 8024   2.221   7.921   4.359  0.6109  1.1864 -2.8191
   60POPC  C312 8025   2.212   7.823   4.167  0.0880  0.5340  0.0615
   60POPC  H12X 8026   2.236   7.723   4.125  0.2296  0.2353  0.8600
   60POPC  H12Y 8027   2.267   7.903   4.113 -1.5848  1.5119 -0.2442
   60POPC  C313 8028   2.065   7.856   4.142  0.0155  0.2073  0.0522
   60POPC  H13X 8029   2.037   7.952   4.191 -1.1948  0.7538 -1.6360
   60POPC  H13Y 8030   2.013   7.771   4.192 -1.3925  0.6454 -0.6385
   60POPC  C314 8031   2.021   7.854   3.995 -0.0996  0.1603  0.0880
   60POPC  H14X 8032   2.072   7.768   3.946 -1.6555 -0.6141 -0.1874
   60POPC  H14Y 8033   2.059   7.946   3.944 -0.8480 -0.4295 -1.5693
   60POPC  C315 8034   1.871   7.850   3.966 -0.0634 -0.2604 -0.0427
   60POPC  H15X 8035   1.833   7.749   3.993  1.5153 -0.1003  3.0577
   60POPC  H15Y 8036   1.872   7.863   3.856 -3.0968 -0.1228 -0.0917
   60POPC  C316 8037   1.789   0.003   4.025  0.5357  0.1344  0.1038
   60POPC  H16X 8038   1.816   0.103   3.984  0.1371  0.7824  1.4117
   60POPC  H16Y 8039   1.809   0.017   4.133  0.2718  1.0436  0.0420
   60POPC  H16Z 8040   1.681   7.943   4.013  0.4500  1.2709 -1.4423
   61POPC     N 8041   3.648   7.166   6.291 -0.3412  0.3404 -0.3081
   61POPC   C12 8042   3.783   7.128   6.235 -0.2556  0.6188 -0.2914
   61POPC  H12A 8046   3.839   7.100   6.322  0.6913  1.7039 -0.5454
   61POPC  H12B 8047   3.816   7.222   6.193 -1.7803  1.4918  0.3934
   61POPC   C13 8043   3.565   7.048   6.336  0.6413 -0.1284  0.2801
   61POPC  H13A 8048   3.611   6.996   6.419  0.3367 -1.2676 -0.2518
   61POPC  H13B 8049   3.465   7.067   6.371  0.7582  2.7283 -0.7956
   61POPC  H13C 8050   3.558   6.980   6.252  1.0490 -0.5721  0.6048
   61POPC   C14 8044   3.660   7.252   6.415 -0.3817 -0.0400 -0.0405
   61POPC  H14A 8051   3.563   7.274   6.456 -0.7687 -0.2256 -0.8548
   61POPC  H14B 8052   3.721   7.197   6.486 -1.9806 -1.9964 -0.1302
   61POPC  H14C 8053   3.718   7.341   6.393 -0.6509  0.9651  3.0279
   61POPC   C15 8045   3.572   7.244   6.186 -0.9297 -0.0198 -0.1527
   61POPC  H15A 8054   3.622   7.339   6.174 -0.2289  0.1865  3.5889
   61POPC  H15B 8055   3.467   7.255   6.209 -1.4796 -5.0209  0.2561
   61POPC  H15C 8056   3.597   7.194   6.094  0.8100 -0.1718  0.3875
   61POPC   C11 8057   3.798   7.007   6.143 -0.0233  0.4642 -0.0488
   61POPC  H11A 8058   3.801   6.922   6.214 -0.1519  0.5887  0.1070
   61POPC  H11B 8059   3.896   7.005   6.091 -0.0661 -0.5887 -0.0909
   61POPC     P 8060   3.658   6.863   5.991  0.1228 -0.0244  0.0024
   61POPC   O13 8061   3.547   6.813   6.075  0.5769 -0.3893  0.3925
   61POPC   O14 8062   3.784   6.784   5.988  0.3708  0.3629  0.1742
   61POPC   O12 8063   3.692   7.009   6.048 -0.0771  0.0221  0.0031
   61POPC   O11 8064   3.613   6.887   5.840 -0.9082 -0.4759  0.2354
   61POPC    C1 8065   3.519   6.992   5.817 -0.1836  0.0688 -0.2782
   61POPC    HA 8066   3.579   7.062   5.755 -0.0635 -0.0182 -0.2614
   61POPC    HB 8067   3.485   7.045   5.909  0.7361  2.1437 -1.1075
   61POPC    C2 8068   3.395   6.952   5.736 -0.2713 -0.3540  0.0618
   61POPC    HS 8069   3.341   6.873   5.793 -0.3745 -0.9207 -0.8035
   61POPC   O21 8070   3.439   6.903   5.609 -0.0861  0.2271 -0.0971
   61POPC   C21 8071   3.358   6.837   5.526  0.1582 -0.0844 -0.0903
   61POPC   O22 8072   3.245   6.802   5.556  0.1229 -0.0261 -0.1559
   61POPC   C22 8073   3.426   6.807   5.393  0.0718 -0.1582 -0.1170
   61POPC   H2R 8074   3.490   6.717   5.398  1.5834  0.8767 -0.6254
   61POPC   H2S 8075   3.494   6.893   5.381 -0.6357  0.0614 -2.8428
   61POPC    C3 8076   3.303   7.072   5.707  0.3852  0.1865  0.1989
   61POPC    HX 8077   3.271   7.118   5.803 -1.6873 -3.7736  1.5392
   61POPC    HY 8078   3.204   7.043   5.664 -1.4984  2.3208  2.9438
   61POPC   O31 8079   3.361   7.175   5.627  0.4093 -0.5702 -0.7837
   61POPC   C31 8080   3.275   7.276   5.610  0.9166  0.1419  0.7040
   61POPC   O32 8081   3.163   7.291   5.655  0.4753  0.1104 -0.3538
   61POPC   C32 8082   3.331   7.374   5.507  0.2663  0.1849  0.3896
   61POPC   H2X 8083   3.441   7.364   5.518  0.2910  0.7638  0.6570
   61POPC   H2Y 8084   3.306   7.479   5.533  4.8962  1.4862  0.0317
   61POPC   C23 8085   3.323   6.792   5.281  0.0784 -0.9461 -0.0187
   61POPC   H3R 8086   3.270   6.888   5.267 -0.0439 -1.0724 -0.4237
   61POPC   H3S 8087   3.241   6.723   5.312 -0.0760 -0.5297  0.5027
   61POPC   C24 8088   3.370   6.751   5.141 -0.6494 -0.4932 -0.3962
   61POPC   H4R 8089   3.447   6.820   5.102  0.4209 -0.6966  1.2927
   61POPC   H4S 8090   3.282   6.746   5.073 -1.2203  1.2611  0.1786
   61POPC   C25 8091   3.436   6.614   5.151 -0.3812 -0.3341  0.0435
   61POPC   H5R 8092   3.528   6.615   5.214 -0.5841 -1.0047  0.3529
   61POPC   H5S 8093   3.454   6.582   5.046 -2.3712  0.4371 -0.5389
   61POPC   C26 8094   3.338   6.509   5.204 -0.3407 -0.5162 -0.2400
   61POPC   H6R 8095   3.243   6.513   5.145  0.1324 -0.3770 -1.0061
   61POPC   H6S 8096   3.318   6.523   5.312  1.5228  2.1062 -0.1845
   61POPC   C27 8097   3.390   6.367   5.185 -0.2093 -0.4549 -0.3430
   61POPC   H7R 8098   3.415   6.351   5.078 -0.1574 -1.6852 -0.1597
   61POPC   H7S 8099   3.313   6.288   5.201  1.8910 -2.3560  0.7293
   61POPC   C28 8100   3.510   6.314   5.264  0.1797  0.4000 -0.3594
   61POPC   H8R 8101   3.473   6.298   5.367  1.3179 -0.1133 -0.0282
   61POPC   H8S 8102   3.592   6.390   5.266 -0.1994  0.7746  0.9032
   61POPC   C29 8103   3.563   6.191   5.195  0.3039  0.2135  0.0684
   61POPC   H91 8104   3.503   6.101   5.211 -3.5416  2.8442  1.3190
   61POPC  C210 8105   3.660   6.184   5.102 -0.2020  0.2328 -0.4584
   61POPC  H101 8106   3.684   6.082   5.069 -1.2052  0.3362 -1.5657
   61POPC  C211 8107   3.739   6.298   5.043  0.1749  0.1889 -0.0356
   61POPC  H11R 8108   3.845   6.263   5.040  0.2150  0.1690  1.1646
   61POPC  H11S 8109   3.738   6.400   5.085 -1.2334 -0.5226  1.7400
   61POPC  C212 8110   3.695   6.308   4.897  0.2684  0.5105 -0.0415
   61POPC  H12R 8111   3.603   6.370   4.893 -0.8508 -1.0262  1.0889
   61POPC  H12S 8112   3.667   6.207   4.861  0.2602  0.6519 -0.4282
   61POPC  C213 8113   3.803   6.351   4.798  0.0459  0.5052 -0.2846
   61POPC  H13R 8114   3.896   6.300   4.830  0.8638  2.6130  0.7966
   61POPC  H13S 8115   3.813   6.461   4.808  1.4748  0.5173 -1.7405
   61POPC  C214 8116   3.777   6.314   4.651  0.1757 -0.3525 -0.0954
   61POPC  H14R 8117   3.677   6.356   4.624  1.4888  2.3766 -0.9045
   61POPC  H14S 8118   3.758   6.205   4.640 -2.2516  0.0309 -0.0646
   61POPC  C215 8119   3.897   6.361   4.569 -0.0802 -0.0559 -0.3032
   61POPC  H15R 8120   3.981   6.301   4.611 -0.4690 -1.0166 -0.8715
   61POPC  H15S 8121   3.906   6.466   4.602 -1.6220 -0.4044  1.2735
   61POPC  C216 8122   3.880   6.346   4.418 -0.1808 -0.4429 -0.2551
   61POPC  H16R 8123   3.801   6.414   4.380 -1.9598 -2.1014  0.3820
   61POPC  H16S 8124   3.838   6.246   4.392  1.8540 -0.6288 -3.0042
   61POPC  C217 8125   4.011   6.348   4.340 -0.2842 -0.4476 -0.4325
   61POPC  H17R 8126   4.084   6.277   4.385 -1.8376 -0.2376  2.5381
   61POPC  H17S 8127   4.059   6.448   4.350  0.1620 -0.6132 -0.8775
   61POPC  C218 8128   3.995   6.320   4.191 -0.8068 -0.5808 -0.3495
   61POPC  H18R 8129   3.907   6.372   4.147 -1.3411 -1.8090 -0.7421
   61POPC  H18S 8130   3.969   6.213   4.177  0.7497 -1.4118  2.6719
   61POPC  H18T 8131   4.081   6.337   4.123 -1.3334  1.3666 -0.5666
   61POPC   C33 8132   3.292   7.342   5.363  0.4579  0.1865  0.3376
   61POPC   H3X 8133   3.316   7.423   5.291  0.2962 -0.2249 -0.1885
   61POPC   H3Y 8134   3.181   7.332   5.357  0.6088 -3.4133  2.1179
   61POPC   C34 8135   3.366   7.221   5.305 -0.4380  0.1064 -0.6653
   61POPC   H4X 8136   3.352   7.130   5.368  0.2633 -0.6297 -1.5632
   61POPC   H4Y 8137   3.474   7.247   5.307 -0.0850 -1.2846 -0.8212
   61POPC   C35 8138   3.324   7.182   5.163 -0.1553 -0.0582 -0.7024
   61POPC   H5X 8139   3.386   7.097   5.125  0.0401 -1.2699  2.1144
   61POPC   H5Y 8140   3.350   7.270   5.101  2.5500 -0.2878  0.0359
   61POPC   C36 8141   3.178   7.141   5.150 -0.1866 -0.3332  0.4459
   61POPC   H6X 8142   3.114   7.232   5.143  0.8073  0.2162 -1.8126
   61POPC   H6Y 8143   3.154   7.072   5.234 -1.0123 -1.5189 -0.7473
   61POPC   C37 8144   3.134   7.067   5.023  0.2273  0.1137  0.0406
   61POPC   H7X 8145   3.199   6.983   4.993 -1.2485 -1.4143  1.0000
   61POPC   H7Y 8146   3.138   7.150   4.949  1.4215  0.7081  0.7600
   61POPC   C38 8147   2.986   7.027   5.023  0.4084 -0.5549 -0.1748
   61POPC   H8X 8148   2.959   6.997   4.920  5.0208  0.1558 -1.6982
   61POPC   H8Y 8149   2.930   7.120   5.048 -0.6516 -1.6798  1.7811
   61POPC   C39 8150   2.944   6.919   5.123 -0.6533 -0.1301 -0.1523
   61POPC   H9X 8151   2.984   6.950   5.222  0.2079 -0.8242 -0.2712
   61POPC   H9Y 8152   2.994   6.826   5.086  4.9984  1.9783  1.7081
   61POPC  C310 8153   2.792   6.908   5.134 -0.6798  0.1968 -0.1931
   61POPC  H10X 8154   2.743   6.907   5.035 -1.4847 -1.0122  0.2050
   61POPC  H10Y 8155   2.750   6.999   5.183  2.2878  1.4568  0.1106
   61POPC  C311 8156   2.735   6.784   5.203 -0.0269 -0.1668 -0.3075
   61POPC  H11X 8157   2.787   6.698   5.155  1.9949  2.0860 -2.3066
   61POPC  H11Y 8158   2.633   6.781   5.159 -0.8811  0.3103  1.6010
   61POPC  C312 8159   2.742   6.775   5.356 -0.4741 -0.9695 -0.3310
   61POPC  H12X 8160   2.683   6.689   5.395 -1.6068 -0.5501 -1.1045
   61POPC  H12Y 8161   2.690   6.858   5.408  2.9321  0.2671  1.2148
   61POPC  C313 8162   2.882   6.764   5.417 -0.2809  0.1189 -0.5709
   61POPC  H13X 8163   2.871   6.743   5.525 -0.7981  0.2452 -0.5963
   61POPC  H13Y 8164   2.931   6.864   5.416  2.2927 -1.0967 -2.1147
   61POPC  C314 8165   2.973   6.654   5.361 -0.3146  0.3079 -1.0036
   61POPC  H14X 8166   3.067   6.667   5.419 -0.4487 -0.7795 -0.5344
   61POPC  H14Y 8167   2.997   6.680   5.256  0.1007  3.2222 -0.2551
   61POPC  C315 8168   2.920   6.511   5.367  0.3146  0.1056  0.0236
   61POPC  H15X 8169   2.837   6.503   5.294  0.2839  2.0852 -0.1891
   61POPC  H15Y 8170   2.873   6.499   5.467  1.2763 -1.1691  0.3339
   61POPC  C316 8171   3.015   6.400   5.323 -0.0460 -0.4375  0.5978
   61POPC  H16X 8172   3.027   6.401   5.212  0.8616 -0.4977  0.6873
   61POPC  H16Y 8173   2.987   6.299   5.357 -0.3509 -0.9758 -1.2049
   61POPC  H16Z 8174   3.118   6.422   5.360  0.2112 -1.4076  0.4792
   62POPC     N 8175   2.846   3.832   6.192  0.0790 -0.1901 -0.0959
   62POPC   C12 8176   2.976   3.814   6.117  0.1982  0.5369 -0.0684
   62POPC  H12A 8180   2.944   3.844   6.019  1.3639  1.9004 -0.0374
   62POPC  H12B 8181   2.991   3.707   6.114 -1.4032  0.2879  0.4199
   62POPC   C13 8177   2.730   3.753   6.136 -0.0996  0.1011 -0.1305
   62POPC  H13A 8182   2.716   3.766   6.030  3.0226  1.4516 -0.4275
   62POPC  H13B 8183   2.738   3.650   6.165 -0.8835  0.4058  1.2787
   62POPC  H13C 8184   2.641   3.798   6.180 -1.0023 -1.8323  0.0885
   62POPC   C14 8178   2.863   3.809   6.340 -0.1172 -0.1067 -0.0611
   62POPC  H14A 8185   2.941   3.871   6.380  0.2993  0.8742 -2.3403
   62POPC  H14B 8186   2.771   3.827   6.394 -0.0620 -0.0035 -0.0014
   62POPC  H14C 8187   2.887   3.705   6.357 -1.5677 -0.5412 -0.6098
   62POPC   C15 8179   2.809   3.977   6.178 -0.0276 -0.1829  0.2388
   62POPC  H15A 8188   2.762   3.984   6.080  0.5908  1.5599  0.0364
   62POPC  H15B 8189   2.899   4.037   6.172  0.2308 -0.6339 -0.5301
   62POPC  H15C 8190   2.743   3.994   6.261 -0.5535  0.1666 -0.2455
   62POPC   C11 8191   3.106   3.894   6.123  0.2662  0.4327 -0.1592
   62POPC  H11A 8192   3.193   3.855   6.065  0.5019 -0.1913  0.6143
   62POPC  H11B 8193   3.131   3.886   6.230 -0.5722 -2.4849 -0.1443
   62POPC     P 8194   3.201   4.132   6.132  0.2229  0.0203  0.2709
   62POPC   O13 8195   3.200   4.168   6.276  0.1995  0.5858  0.1265
   62POPC   O14 8196   3.193   4.249   6.042  0.1477  0.3284  0.6787
   62POPC   O12 8197   3.081   4.032   6.095  0.0355  0.3952 -0.1375
   62POPC   O11 8198   3.327   4.039   6.102  0.1254 -0.0448  0.0596
   62POPC    C1 8199   3.418   4.091   6.004  0.0775 -0.0056  0.0369
   62POPC    HA 8200   3.517   4.042   6.011  1.4838  2.6858 -0.2521
   62POPC    HB 8201   3.435   4.200   6.015  0.7567 -0.1381  0.3160
   62POPC    C2 8202   3.362   4.061   5.864  0.4423 -0.3928 -0.0263
   62POPC    HS 8203   3.267   4.117   5.850  0.8044  0.0187 -0.9092
   62POPC   O21 8204   3.350   3.919   5.856  0.3637 -0.4218  0.5889
   62POPC   C21 8205   3.239   3.874   5.797  0.2457 -0.2424  0.6750
   62POPC   O22 8206   3.147   3.944   5.758  0.3774 -0.3092  0.2393
   62POPC   C22 8207   3.243   3.722   5.793  0.6104 -0.2131 -0.3036
   62POPC   H2R 8208   3.289   3.678   5.884 -2.1435 -0.2233  1.1440
   62POPC   H2S 8209   3.306   3.690   5.708  2.8878 -1.3197  1.7398
   62POPC    C3 8210   3.450   4.103   5.745 -0.2184 -0.5455 -0.5728
   62POPC    HX 8211   3.527   4.026   5.724  0.1159  0.4397 -3.1050
   62POPC    HY 8212   3.505   4.189   5.788 -1.6900  0.5849 -0.9201
   62POPC   O31 8213   3.390   4.131   5.618  0.2136  0.0478 -0.6474
   62POPC   C31 8214   3.449   4.233   5.555  0.4184  0.2080 -0.1984
   62POPC   O32 8215   3.546   4.288   5.603 -0.0091  0.3628  0.4968
   62POPC   C32 8216   3.357   4.281   5.444 -0.0124 -0.4604 -0.1335
   62POPC   H2X 8217   3.364   4.391   5.459  1.9971 -0.7588  1.2585
   62POPC   H2Y 8218   3.252   4.244   5.451 -0.6935  1.1477 -1.4550
   62POPC   C23 8219   3.106   3.661   5.766  0.4562  0.0839 -0.1903
   62POPC   H3R 8220   3.036   3.707   5.839  0.1139 -1.2640  0.3456
   62POPC   H3S 8221   3.097   3.551   5.779 -1.5264  0.1197 -1.0293
   62POPC   C24 8222   3.060   3.679   5.621 -0.1860  0.2440  0.0319
   62POPC   H4R 8223   3.119   3.604   5.564  0.8335  1.5086 -0.5865
   62POPC   H4S 8224   3.056   3.779   5.573  1.2614 -0.4901 -1.6593
   62POPC   C25 8225   2.912   3.645   5.602 -0.0767 -0.0292 -0.3236
   62POPC   H5R 8226   2.897   3.541   5.639  0.4344  1.2884  3.7722
   62POPC   H5S 8227   2.890   3.638   5.493  0.5186 -0.9899 -0.3925
   62POPC   C26 8228   2.815   3.738   5.674  0.6190  0.5015 -0.0714
   62POPC   H6R 8229   2.846   3.749   5.781  0.8793 -0.5035 -0.0399
   62POPC   H6S 8230   2.711   3.702   5.661  1.0848  0.0263 -2.7499
   62POPC   C27 8231   2.815   3.885   5.630  0.2941  0.4351 -0.2949
   62POPC   H7R 8232   2.918   3.925   5.640 -0.6183  2.3222  1.8314
   62POPC   H7S 8233   2.745   3.936   5.699 -1.5215  1.9399 -3.1532
   62POPC   C28 8234   2.775   3.913   5.486  0.2625 -0.1302 -0.3997
   62POPC   H8R 8235   2.682   3.853   5.471 -0.3104  1.1067 -2.0694
   62POPC   H8S 8236   2.858   3.867   5.429  0.9333 -0.4374  0.8184
   62POPC   C29 8237   2.740   4.054   5.447 -0.7851 -0.5194 -0.8949
   62POPC   H91 8238   2.641   4.094   5.474 -1.1091 -1.8477 -0.0665
   62POPC  C210 8239   2.832   4.130   5.385 -0.4245 -0.3923 -0.2061
   62POPC  H101 8240   2.805   4.234   5.360  1.4039  0.1739  0.1024
   62POPC  C211 8241   2.978   4.106   5.361 -0.3238 -0.3111  0.3112
   62POPC  H11R 8242   3.031   4.028   5.420 -0.0356  0.9344  1.7077
   62POPC  H11S 8243   3.038   4.197   5.377  0.3239 -0.6552 -0.1293
   62POPC  C212 8244   2.999   4.059   5.217 -0.1786  0.0654  0.2075
   62POPC  H12R 8245   2.936   3.972   5.189 -3.1553  1.8674  1.1314
   62POPC  H12S 8246   3.107   4.030   5.215 -0.2406 -0.1304 -0.4130
   62POPC  C213 8247   2.954   4.167   5.119  0.4510  0.1908  0.0538
   62POPC  H13R 8248   3.019   4.255   5.138 -0.3859  0.2904  2.6339
   62POPC  H13S 8249   2.854   4.212   5.138  0.1275 -1.2503  1.9072
   62POPC  C214 8250   2.968   4.123   4.973 -0.0229  0.1592  0.0157
   62POPC  H14R 8251   2.903   4.035   4.951 -2.6562  2.4589 -1.7215
   62POPC  H14S 8252   3.067   4.083   4.941  0.3317  1.1645 -0.1514
   62POPC  C215 8253   2.937   4.246   4.889 -0.1380  0.2736  0.2249
   62POPC  H15R 8254   3.007   4.327   4.918  0.0547  0.5554 -0.9811
   62POPC  H15S 8255   2.832   4.278   4.904  0.4372  0.9888  3.0400
   62POPC  C216 8256   2.949   4.233   4.737  0.6771 -0.0333  0.3118
   62POPC  H16R 8257   3.025   4.155   4.718 -1.5259 -2.3376  0.6770
   62POPC  H16S 8258   2.978   4.333   4.698  2.5658  0.5391  3.0617
   62POPC  C217 8259   2.819   4.189   4.669  0.5243 -0.4116  0.8502
   62POPC  H17R 8260   2.739   4.267   4.676  1.2174  0.3241  0.5937
   62POPC  H17S 8261   2.776   4.097   4.715 -0.9595 -0.4873 -0.6466
   62POPC  C218 8262   2.842   4.165   4.520 -0.6690  0.3537  0.5314
   62POPC  H18R 8263   2.849   4.054   4.513 -0.7513  0.4159 -0.5906
   62POPC  H18S 8264   2.937   4.203   4.477 -0.5457 -3.4358 -2.8929
   62POPC  H18T 8265   2.750   4.184   4.461 -0.1671 -0.7000 -0.5942
   62POPC   C33 8266   3.419   4.231   5.314  0.0532  0.1940 -0.3534
   62POPC   H3X 8267   3.399   4.123   5.304 -1.8435  0.5894 -1.0350
   62POPC   H3Y 8268   3.529   4.250   5.316  0.3957 -1.8308  0.4063
   62POPC   C34 8269   3.363   4.296   5.187 -0.5662  0.4577  0.0563
   62POPC   H4X 8270   3.369   4.407   5.185 -1.9009  0.5512  0.3644
   62POPC   H4Y 8271   3.253   4.279   5.179 -0.5475 -0.0529  0.8737
   62POPC   C35 8272   3.415   4.238   5.056 -0.5905 -0.4593  0.4521
   62POPC   H5X 8273   3.376   4.134   5.047  1.7770 -1.1807 -2.3781
   62POPC   H5Y 8274   3.525   4.243   5.069 -0.6667  0.8796  0.6428
   62POPC   C36 8275   3.364   4.311   4.932 -0.1862  0.0099  0.5633
   62POPC   H6X 8276   3.253   4.321   4.931 -0.2664 -0.9089 -0.3234
   62POPC   H6Y 8277   3.393   4.256   4.840 -0.9017 -0.3600  0.5552
   62POPC   C37 8278   3.411   4.452   4.895 -0.0517 -0.1600  0.0853
   62POPC   H7X 8279   3.354   4.510   4.971 -0.7864 -0.9859  0.1701
   62POPC   H7Y 8280   3.389   4.490   4.793 -1.0868  2.0931  1.1063
   62POPC   C38 8281   3.558   4.480   4.925 -0.1494 -0.0334  0.4416
   62POPC   H8X 8282   3.577   4.478   5.035 -1.7500 -1.9145  0.7126
   62POPC   H8Y 8283   3.576   4.582   4.885  1.4215 -0.8301 -0.9465
   62POPC   C39 8284   3.665   4.399   4.852  0.0449  0.6851 -0.0741
   62POPC   H9X 8285   3.624   4.297   4.865  0.2068  0.9530  3.2032
   62POPC   H9Y 8286   3.762   4.403   4.908 -0.6411 -0.0689  1.1848
   62POPC  C310 8287   3.695   4.419   4.704 -0.1224 -0.1905 -0.2227
   62POPC  H10X 8288   3.690   4.527   4.681 -0.1623  0.0562  0.9599
   62POPC  H10Y 8289   3.627   4.357   4.640  1.9544 -0.3246 -2.3693
   62POPC  C311 8290   3.830   4.365   4.656  0.3215  0.0413  0.7623
   62POPC  H11X 8291   3.849   4.265   4.701  1.4884 -0.5771 -1.0502
   62POPC  H11Y 8292   3.918   4.426   4.686  1.1104 -0.6571 -0.0944
   62POPC  C312 8293   3.848   4.364   4.504 -0.4496 -0.0373  0.6697
   62POPC  H12X 8294   3.799   4.278   4.453 -0.1632  0.2725 -0.1431
   62POPC  H12Y 8295   3.957   4.356   4.487 -0.2744 -0.7344  2.0551
   62POPC  C313 8296   3.806   4.494   4.434  0.2678 -0.1732 -0.0257
   62POPC  H13X 8297   3.828   4.577   4.504  0.3798  0.2387 -0.5519
   62POPC  H13Y 8298   3.697   4.503   4.414 -0.1034  0.4486  2.0991
   62POPC  C314 8299   3.888   4.529   4.310 -0.0197 -0.0257 -0.1745
   62POPC  H14X 8300   3.996   4.545   4.333 -0.1303  0.4659 -0.0007
   62POPC  H14Y 8301   3.848   4.627   4.277  1.6887  1.5407  2.2542
   62POPC  C315 8302   3.875   4.420   4.204 -0.0077 -0.0841 -0.1178
   62POPC  H15X 8303   3.767   4.396   4.191 -0.3444  0.8200  0.9896
   62POPC  H15Y 8304   3.926   4.325   4.229 -0.5540 -0.3633 -0.0599
   62POPC  C316 8305   3.926   4.451   4.063  0.2635  0.5620  0.1205
   62POPC  H16X 8306   3.877   4.544   4.027 -0.3425  0.3470  0.3868
   62POPC  H16Y 8307   3.910   4.361   4.000  1.8071  0.3876 -0.0455
   62POPC  H16Z 8308   4.037   4.463   4.059  0.3515 -0.3890 -0.3554
   63POPC     N 8309   3.320   1.838   6.555  0.2627 -0.0531  0.1330
   63POPC   C12 8310   3.194   1.865   6.477 -0.0116 -0.3680  0.4633
   63POPC  H12A 8314   3.120   1.813   6.535 -0.6339 -0.5596 -0.4877
   63POPC  H12B 8315   3.212   1.833   6.376 -0.9893 -0.1224  0.1990
   63POPC   C13 8311   3.443   1.899   6.493 -0.1939  0.5022 -0.2236
   63POPC  H13A 8316   3.467   1.854   6.398  1.4003  1.4543 -0.2872
   63POPC  H13B 8317   3.417   2.002   6.471 -1.0583  0.4274  0.4253
   63POPC  H13C 8318   3.527   1.889   6.560 -0.6265  0.0201  0.2455
   63POPC   C14 8312   3.310   1.869   6.703 -0.5490 -0.2881  0.1292
   63POPC  H14A 8319   3.317   1.975   6.719 -0.7513 -0.0303 -1.4349
   63POPC  H14B 8320   3.222   1.833   6.755 -0.2354  1.5851  1.9966
   63POPC  H14C 8321   3.392   1.825   6.758  0.2847  0.0185 -0.8587
   63POPC   C15 8313   3.332   1.687   6.546  0.1154 -0.0575  0.0020
   63POPC  H15A 8322   3.243   1.646   6.591  0.1476 -1.3127 -1.0489
   63POPC  H15B 8323   3.413   1.652   6.609 -1.2098  1.2898  2.5053
   63POPC  H15C 8324   3.340   1.670   6.440 -1.4564  2.5943 -0.5951
   63POPC   C11 8325   3.140   2.008   6.475  0.4753 -0.1926 -0.1196
   63POPC  H11A 8326   3.103   2.029   6.578 -2.1982 -1.4630 -0.7943
   63POPC  H11B 8327   3.048   1.999   6.414 -0.1835 -1.1634  1.0011
   63POPC     P 8328   3.172   2.243   6.404  0.0982 -0.2020 -0.3213
   63POPC   O13 8329   3.270   2.354   6.406 -0.0910 -0.0418  0.2391
   63POPC   O14 8330   3.059   2.268   6.497  0.3076  0.3042 -0.1982
   63POPC   O12 8331   3.241   2.102   6.436  0.3176 -0.0808 -0.2558
   63POPC   O11 8332   3.107   2.221   6.260 -0.3717  0.1185 -0.1614
   63POPC    C1 8333   3.171   2.228   6.132  0.3478  0.3528  0.2073
   63POPC    HA 8334   3.138   2.146   6.064  0.5054 -1.4398  2.2500
   63POPC    HB 8335   3.273   2.187   6.146  0.1606 -0.7090 -1.4106
   63POPC    C2 8336   3.153   2.366   6.066  0.1543  0.1447 -0.1812
   63POPC    HS 8337   3.201   2.441   6.133  2.0538  0.0136 -1.3612
   63POPC   O21 8338   3.012   2.391   6.058  0.1098 -0.0441  0.0012
   63POPC   C21 8339   2.974   2.516   6.035  0.0277 -0.1051 -0.1920
   63POPC   O22 8340   3.048   2.612   6.023  0.2869 -0.2578  0.1709
   63POPC   C22 8341   2.826   2.510   5.997 -0.1156  0.3914  0.2889
   63POPC   H2R 8342   2.793   2.613   6.022  1.3673  0.6125  1.3962
   63POPC   H2S 8343   2.765   2.436   6.053  1.9130  0.0296  2.1015
   63POPC    C3 8344   3.232   2.387   5.936  0.2372  0.0703 -0.1418
   63POPC    HX 8345   3.338   2.356   5.947  0.3759  0.6818  0.2797
   63POPC    HY 8346   3.233   2.495   5.913  1.5407 -0.3666 -2.2838
   63POPC   O31 8347   3.181   2.306   5.830  0.2909 -0.3084  0.1209
   63POPC   C31 8348   3.243   2.331   5.715  0.0776 -0.4261 -0.0211
   63POPC   O32 8349   3.332   2.412   5.699 -0.2245 -0.0908 -0.0300
   63POPC   C32 8350   3.182   2.249   5.602  0.2781 -0.3084 -0.2141
   63POPC   H2X 8351   3.165   2.144   5.635  0.5725 -0.6993 -1.2971
   63POPC   H2Y 8352   3.254   2.250   5.518 -0.2578 -0.1237 -0.6745
   63POPC   C23 8353   2.821   2.484   5.847 -0.1664 -0.1270  0.3814
   63POPC   H3R 8354   2.844   2.377   5.825  1.6503  0.1539  0.9276
   63POPC   H3S 8355   2.891   2.545   5.786 -1.9023  1.4878 -0.0491
   63POPC   C24 8356   2.677   2.498   5.797 -0.1446  0.1614  0.4036
   63POPC   H4R 8357   2.604   2.425   5.839  0.2283  0.3623  1.3980
   63POPC   H4S 8358   2.677   2.472   5.689  0.7363 -3.5593  1.2371
   63POPC   C25 8359   2.603   2.632   5.809 -0.1586  0.1585  0.3508
   63POPC   H5R 8360   2.629   2.680   5.906  0.9434 -1.8274  1.0610
   63POPC   H5S 8361   2.494   2.612   5.800 -0.2450  0.7325  0.0485
   63POPC   C26 8362   2.642   2.729   5.697 -0.7103 -0.2232 -0.1785
   63POPC   H6R 8363   2.618   2.677   5.602 -2.3259  0.3921 -0.1213
   63POPC   H6S 8364   2.750   2.751   5.710 -0.6605  1.6542 -3.2534
   63POPC   C27 8365   2.575   2.867   5.697  0.2540  0.2515  0.2621
   63POPC   H7R 8366   2.466   2.852   5.707  0.1629  0.5761 -0.2336
   63POPC   H7S 8367   2.590   2.919   5.600  1.6392  0.3095  0.4887
   63POPC   C28 8368   2.624   2.964   5.805  0.2933 -0.2357  0.6865
   63POPC   H8R 8369   2.734   2.953   5.809  0.3334 -0.0285  0.2866
   63POPC   H8S 8370   2.577   2.929   5.899  1.1807 -0.0568  1.2044
   63POPC   C29 8371   2.577   3.105   5.784  0.3306 -0.3450 -0.1718
   63POPC   H91 8372   2.473   3.114   5.748  0.8861  0.7863 -1.5362
   63POPC  C210 8373   2.649   3.217   5.767  0.0543 -0.0573  0.5276
   63POPC  H101 8374   2.603   3.317   5.761 -1.2996 -0.6182  1.2351
   63POPC  C211 8375   2.797   3.222   5.787  0.0148  0.7536  0.6223
   63POPC  H11R 8376   2.849   3.144   5.847 -1.0194 -0.3851  0.0461
   63POPC  H11S 8377   2.807   3.324   5.831 -0.5535  1.6199 -1.2341
   63POPC  C212 8378   2.866   3.215   5.651 -0.3870  0.1927  0.4499
   63POPC  H12R 8379   2.817   3.286   5.581  1.7085  0.4439 -0.7977
   63POPC  H12S 8380   2.850   3.113   5.610  0.1854 -0.1667  1.1186
   63POPC  C213 8381   3.016   3.237   5.665 -0.3266  0.5520 -0.6943
   63POPC  H13R 8382   3.041   3.195   5.764  0.2670  0.6468 -0.8003
   63POPC  H13S 8383   3.017   3.347   5.675 -2.1390  0.6692 -1.6709
   63POPC  C214 8384   3.098   3.182   5.548  0.0488  0.2411 -0.2869
   63POPC  H14R 8385   3.083   3.072   5.560 -0.1832  0.4993  1.9895
   63POPC  H14S 8386   3.207   3.200   5.560  0.3805 -1.6270 -0.2978
   63POPC  C215 8387   3.062   3.237   5.410  0.1928  0.2722 -0.3127
   63POPC  H15R 8388   3.072   3.348   5.418  3.6841 -0.0872  1.2191
   63POPC  H15S 8389   2.969   3.189   5.372 -0.4113  1.4925 -0.4253
   63POPC  C216 8390   3.166   3.203   5.302  0.4857  0.3287 -0.0488
   63POPC  H16R 8391   3.172   3.095   5.275  0.6793  0.8894 -2.3233
   63POPC  H16S 8392   3.259   3.232   5.355 -0.8580  1.1544  1.9234
   63POPC  C217 8393   3.157   3.295   5.181  0.2791  0.0210 -0.2687
   63POPC  H17R 8394   3.153   3.402   5.213  2.6741  0.4502 -1.2605
   63POPC  H17S 8395   3.071   3.277   5.112  1.1613  1.1183 -1.7024
   63POPC  C218 8396   3.276   3.292   5.085  0.0592 -0.1505 -0.5368
   63POPC  H18R 8397   3.360   3.286   5.158 -1.5161 -2.4303  1.1588
   63POPC  H18S 8398   3.281   3.385   5.024 -1.6904  0.3713  0.0785
   63POPC  H18T 8399   3.266   3.210   5.011 -0.3983 -0.6908  0.1164
   63POPC   C33 8400   3.049   2.319   5.571  0.9477  0.8005 -0.6167
   63POPC   H3X 8401   3.055   2.427   5.595  1.5433  0.6301  0.0190
   63POPC   H3Y 8402   2.979   2.275   5.645  0.3694  1.1072 -0.9834
   63POPC   C34 8403   2.990   2.279   5.436  0.2341  0.4743 -0.2092
   63POPC   H4X 8404   2.980   2.168   5.442 -0.0293  0.4418 -1.1984
   63POPC   H4Y 8405   3.061   2.309   5.356  1.7336  0.6284  1.1544
   63POPC   C35 8406   2.855   2.347   5.412  0.0961  0.3381  0.1702
   63POPC   H5X 8407   2.875   2.452   5.382 -1.5177  1.0645  1.5370
   63POPC   H5Y 8408   2.799   2.349   5.508 -0.4911 -1.0724 -0.1367
   63POPC   C36 8409   2.769   2.284   5.303 -0.0062  0.1903  0.3358
   63POPC   H6X 8410   2.759   2.175   5.321 -0.5439 -0.1219 -1.6842
   63POPC   H6Y 8411   2.812   2.282   5.200 -0.7715 -0.4014  0.0197
   63POPC   C37 8412   2.625   2.337   5.300  0.0591  0.3810  0.5911
   63POPC   H7X 8413   2.629   2.436   5.248  0.2378 -1.4052 -2.9460
   63POPC   H7Y 8414   2.570   2.352   5.395 -0.3829  1.0542  0.2387
   63POPC   C38 8415   2.545   2.258   5.196  0.8355  0.1774  0.1413
   63POPC   H8X 8416   2.442   2.298   5.202  1.3091  1.2358  1.6630
   63POPC   H8Y 8417   2.539   2.148   5.211  0.5540  0.3455  1.3448
   63POPC   C39 8418   2.589   2.285   5.052 -0.3293 -0.4142 -0.3260
   63POPC   H9X 8419   2.680   2.225   5.032 -0.2463 -0.5157  0.3469
   63POPC   H9Y 8420   2.617   2.390   5.029  0.8811 -0.6511  0.0361
   63POPC  C310 8421   2.478   2.251   4.952 -0.1520 -0.0045 -0.6593
   63POPC  H10X 8422   2.499   2.273   4.845 -0.8384  3.0026 -0.2435
   63POPC  H10Y 8423   2.383   2.305   4.970  0.4380  0.8978 -0.2051
   63POPC  C311 8424   2.436   2.105   4.963 -0.2798  0.0838  0.0777
   63POPC  H11X 8425   2.371   2.088   5.051  1.3828  0.0505  1.3303
   63POPC  H11Y 8426   2.523   2.038   4.984  0.3750  1.0239  0.3970
   63POPC  C312 8427   2.377   2.055   4.830  0.9422  0.1210 -0.4926
   63POPC  H12X 8428   2.437   2.082   4.741  1.5727 -1.3005 -0.5093
   63POPC  H12Y 8429   2.281   2.110   4.817  1.6693  1.5912  0.1236
   63POPC  C313 8430   2.359   1.903   4.836  0.2468  0.2103 -0.1490
   63POPC  H13X 8431   2.287   1.876   4.916  0.0980  1.9866  0.3373
   63POPC  H13Y 8432   2.459   1.855   4.849  1.0187  1.6322 -0.6551
   63POPC  C314 8433   2.304   1.849   4.704  0.2389 -0.4502  0.1274
   63POPC  H14X 8434   2.293   1.740   4.724  0.6946 -0.4143  0.5847
   63POPC  H14Y 8435   2.375   1.852   4.619 -0.4843  2.1239 -0.4059
   63POPC  C315 8436   2.167   1.896   4.655  0.1893 -0.6321  0.0879
   63POPC  H15X 8437   2.174   2.005   4.635  0.4304 -0.6634  0.0021
   63POPC  H15Y 8438   2.093   1.887   4.737  1.4566 -1.8976  1.1214
   63POPC  C316 8439   2.115   1.823   4.531 -0.5462  0.2628 -0.1414
   63POPC  H16X 8440   2.018   1.870   4.505  0.1155  2.9662  1.9287
   63POPC  H16Y 8441   2.096   1.718   4.563 -0.0477  0.4810  0.8970
   63POPC  H16Z 8442   2.192   1.814   4.451  3.5279 -0.3681  3.6481
   64POPC     N 8443   0.358   4.422   6.520  0.0094 -0.0197  0.3240
   64POPC   C12 8444   0.315   4.460   6.380  0.0949 -0.3298  0.2123
   64POPC  H12A 8448   0.257   4.377   6.341  0.8073 -0.4318 -0.6479
   64POPC  H12B 8449   0.404   4.474   6.321 -0.5695  1.4641 -0.4073
   64POPC   C13 8445   0.407   4.279   6.519 -0.8423 -0.3194  0.1788
   64POPC  H13A 8450   0.325   4.216   6.488  0.0665 -1.2120 -0.4439
   64POPC  H13B 8451   0.488   4.259   6.450 -1.2556  1.9113 -0.9894
   64POPC  H13C 8452   0.448   4.257   6.617 -1.0552  3.8568  1.3119
   64POPC   C14 8446   0.464   4.512   6.579 -0.1288  0.1868  0.2592
   64POPC  H14A 8453   0.433   4.611   6.550  1.6230  0.4001 -0.9484
   64POPC  H14B 8454   0.464   4.506   6.686  2.9657 -0.3133  0.2801
   64POPC  H14C 8455   0.558   4.503   6.526 -0.8177  2.3118 -1.3750
   64POPC   C15 8447   0.244   4.433   6.618 -0.1531 -0.4671  0.1882
   64POPC  H15A 8456   0.279   4.407   6.716  0.5923  1.9435  0.6039
   64POPC  H15B 8457   0.160   4.370   6.592 -0.3315 -1.1268  2.2429
   64POPC  H15C 8458   0.214   4.537   6.626 -2.3416 -1.1299  1.0945
   64POPC   C11 8459   0.234   4.587   6.356  0.4921 -0.1020  0.0848
   64POPC  H11A 8460   0.139   4.591   6.413  0.9155  0.2154  0.7838
   64POPC  H11B 8461   0.187   4.596   6.256 -2.6954  0.4513  1.5593
   64POPC     P 8462   0.332   4.808   6.265 -0.1798  0.1633  0.2166
   64POPC   O13 8463   0.434   4.905   6.309 -0.1928  0.0151  0.5689
   64POPC   O14 8464   0.201   4.862   6.224 -0.2435  0.0392  0.2575
   64POPC   O12 8465   0.319   4.700   6.382  0.1665  0.1144  0.2126
   64POPC   O11 8466   0.384   4.717   6.144  0.0667  0.2196  0.2809
   64POPC    C1 8467   0.524   4.684   6.140 -0.1503 -0.6075 -0.7328
   64POPC    HA 8468   0.540   4.574   6.132  0.6390 -0.4422 -1.4694
   64POPC    HB 8469   0.576   4.708   6.235 -0.5596 -0.1788 -0.6139
   64POPC    C2 8470   0.588   4.771   6.030 -0.4920  0.0820 -0.3943
   64POPC    HS 8471   0.591   4.876   6.065 -0.1022  0.0098 -0.2209
   64POPC   O21 8472   0.512   4.753   5.910 -0.3488 -0.4665 -0.4054
   64POPC   C21 8473   0.550   4.840   5.816 -0.5030  0.1083  0.0651
   64POPC   O22 8474   0.617   4.940   5.837  0.4063 -0.4031 -0.3911
   64POPC   C22 8475   0.495   4.808   5.678 -0.2855  0.5821 -0.1333
   64POPC   H2R 8476   0.504   4.902   5.620  1.5882  1.3281  1.3332
   64POPC   H2S 8477   0.387   4.788   5.696 -0.0306  0.5921  1.5430
   64POPC    C3 8478   0.735   4.730   6.011 -0.3363  0.4690 -0.0147
   64POPC    HX 8479   0.790   4.754   6.105 -1.4876  4.5273 -0.2961
   64POPC    HY 8480   0.789   4.791   5.936 -2.3526  1.8160 -0.4124
   64POPC   O31 8481   0.742   4.589   5.989  0.6229  0.5703 -0.3631
   64POPC   C31 8482   0.782   4.553   5.867  1.1448  0.1414 -0.0648
   64POPC   O32 8483   0.826   4.630   5.783  0.4571 -0.0679 -0.6196
   64POPC   C32 8484   0.745   4.408   5.841 -0.5705  0.4012  0.8851
   64POPC   H2X 8485   0.634   4.398   5.841 -0.6245  0.2339 -2.4747
   64POPC   H2Y 8486   0.796   4.349   5.920  0.1003 -0.8651 -0.4731
   64POPC   C23 8487   0.571   4.698   5.604 -0.6799  0.1758  0.0611
   64POPC   H3R 8488   0.581   4.613   5.676 -2.8476  0.7885  1.1239
   64POPC   H3S 8489   0.670   4.740   5.575 -1.0079  2.0152  1.5207
   64POPC   C24 8490   0.497   4.638   5.485 -0.1576  0.2038 -0.2803
   64POPC   H4R 8491   0.395   4.607   5.516 -0.5203  1.9014  0.2847
   64POPC   H4S 8492   0.548   4.550   5.440  1.4194  0.9764 -0.0180
   64POPC   C25 8493   0.465   4.739   5.375 -0.8381  0.3230  0.0256
   64POPC   H5R 8494   0.562   4.775   5.335 -0.8416 -1.9921 -2.2162
   64POPC   H5S 8495   0.421   4.830   5.422 -0.8968  0.1126  0.3794
   64POPC   C26 8496   0.378   4.700   5.255 -0.0416 -0.2026 -0.3859
   64POPC   H6R 8497   0.296   4.632   5.287  0.5996 -1.0198 -0.4552
   64POPC   H6S 8498   0.448   4.650   5.185 -0.2034  0.6950 -1.2020
   64POPC   C27 8499   0.306   4.809   5.176 -0.2130  0.3100  0.4705
   64POPC   H7R 8500   0.381   4.882   5.137 -0.1890  0.5354  0.9389
   64POPC   H7S 8501   0.243   4.873   5.242 -0.5987  0.2519  0.1675
   64POPC   C28 8502   0.224   4.755   5.058  0.0681  0.4406  0.2137
   64POPC   H8R 8503   0.130   4.710   5.097 -1.6712  2.0175 -2.0479
   64POPC   H8S 8504   0.273   4.687   4.986 -1.6821  0.2408 -0.8130
   64POPC   C29 8505   0.173   4.879   4.991 -0.3510  0.0581 -0.1766
   64POPC   H91 8506   0.105   4.946   5.047 -1.9013  1.5032 -3.6328
   64POPC  C210 8507   0.224   4.929   4.877 -0.4253 -0.3180 -0.3769
   64POPC  H101 8508   0.311   4.881   4.830  0.6186  0.3307  0.8348
   64POPC  C211 8509   0.180   5.064   4.829 -0.1125 -0.0205  0.1582
   64POPC  H11R 8510   0.257   5.140   4.806 -2.0283  2.2625  0.9954
   64POPC  H11S 8511   0.119   5.124   4.900 -0.7031  0.2380 -0.5546
   64POPC  C212 8512   0.106   5.045   4.696  0.1285  0.3257 -0.0267
   64POPC  H12R 8513   0.053   5.139   4.668  0.1670  0.9306  1.8044
   64POPC  H12S 8514   0.030   4.965   4.710  1.0310 -0.5951 -0.4064
   64POPC  C213 8515   0.192   4.995   4.581  0.0339 -0.0835  0.0795
   64POPC  H13R 8516   0.126   4.999   4.491  0.7059  0.9807 -0.3708
   64POPC  H13S 8517   0.248   4.902   4.606 -0.7184 -0.6562 -0.3467
   64POPC  C214 8518   0.301   5.095   4.542  0.1543 -0.2892 -0.1158
   64POPC  H14R 8519   0.257   5.197   4.536  1.7772  0.4776  0.6936
   64POPC  H14S 8520   0.376   5.088   4.623  1.4131 -0.0497 -1.2308
   64POPC  C215 8521   0.364   5.056   4.408 -1.2213  0.9266 -1.1294
   64POPC  H15R 8522   0.287   5.069   4.329 -1.5586 -2.1896 -1.3567
   64POPC  H15S 8523   0.399   4.951   4.408 -0.4218  1.1569  1.8514
   64POPC  C216 8524   0.493   5.137   4.394 -0.2422 -0.4559 -0.2096
   64POPC  H16R 8525   0.547   5.106   4.302 -0.9476 -0.2477 -0.6979
   64POPC  H16S 8526   0.562   5.122   4.480 -0.7243 -0.4061  0.1863
   64POPC  C217 8527   0.468   5.288   4.386  0.2412 -0.3565  0.0976
   64POPC  H17R 8528   0.569   5.333   4.375  1.2910 -2.4638  0.8837
   64POPC  H17S 8529   0.413   5.323   4.476  1.3299  0.9463  0.2815
   64POPC  C218 8530   0.385   5.337   4.267  0.1426 -0.3443  0.1707
   64POPC  H18R 8531   0.419   5.298   4.168 -0.0251  0.2874 -0.1339
   64POPC  H18S 8532   0.382   5.447   4.257 -0.8241 -0.5705 -2.4313
   64POPC  H18T 8533   0.281   5.304   4.286  0.0603 -0.1579  0.0366
   64POPC   C33 8534   0.799   4.375   5.701 -0.2381  0.2103  1.0561
   64POPC   H3X 8535   0.900   4.421   5.703  0.8517 -2.0352 -0.4434
   64POPC   H3Y 8536   0.737   4.436   5.632  1.6189 -2.8199 -3.4686
   64POPC   C34 8537   0.801   4.229   5.657 -0.0640  0.4567  0.2475
   64POPC   H4X 8538   0.694   4.199   5.652  0.2563 -0.4494 -1.6318
   64POPC   H4Y 8539   0.850   4.155   5.724 -2.1420 -0.3171  0.9353
   64POPC   C35 8540   0.853   4.203   5.515 -0.2524 -0.1768  0.2920
   64POPC   H5X 8541   0.856   4.099   5.478  4.2730 -0.5589  1.4657
   64POPC   H5Y 8542   0.959   4.235   5.523 -0.7564  2.3069 -2.1076
   64POPC   C36 8543   0.794   4.298   5.411  0.4746 -0.1131 -0.0676
   64POPC   H6X 8544   0.817   4.404   5.434 -0.1852 -0.2163  1.1428
   64POPC   H6Y 8545   0.683   4.290   5.399  0.3422  0.0882  0.9341
   64POPC   C37 8546   0.850   4.265   5.273 -0.1590  0.1812 -0.3971
   64POPC   H7X 8547   0.812   4.166   5.238  0.2170 -0.0112 -0.2566
   64POPC   H7Y 8548   0.958   4.284   5.262 -0.4293  1.5637 -0.7512
   64POPC   C38 8549   0.784   4.362   5.174 -0.6910  0.1794 -0.0488
   64POPC   H8X 8550   0.851   4.451   5.167  1.4077 -1.2187  1.4818
   64POPC   H8Y 8551   0.681   4.387   5.205 -0.3186  0.8224  0.6797
   64POPC   C39 8552   0.769   4.307   5.032  0.3211 -0.1954 -0.0170
   64POPC   H9X 8553   0.699   4.221   5.028  0.4090 -0.1946 -3.1839
   64POPC   H9Y 8554   0.872   4.277   5.000 -1.2430 -3.4795 -2.3030
   64POPC  C310 8555   0.713   4.398   4.922  0.2521  0.0984  0.2612
   64POPC  H10X 8556   0.799   4.467   4.916  0.7187 -0.5785 -1.0025
   64POPC  H10Y 8557   0.620   4.452   4.948  1.0819  1.5102  0.3352
   64POPC  C311 8558   0.722   4.323   4.789 -0.0706  0.5900 -0.0380
   64POPC  H11X 8559   0.668   4.226   4.795  0.9003  0.0733  0.5216
   64POPC  H11Y 8560   0.829   4.299   4.767  0.6973  2.7959  1.1060
   64POPC  C312 8561   0.681   4.399   4.663  0.5615  0.7501 -0.1516
   64POPC  H12X 8562   0.751   4.485   4.664  2.1434 -0.5204 -0.9599
   64POPC  H12Y 8563   0.578   4.437   4.682  0.7630  0.7052  1.0785
   64POPC  C313 8564   0.696   4.320   4.533 -0.3907  0.1671  0.0861
   64POPC  H13X 8565   0.610   4.251   4.523 -0.8103  0.2733  2.4721
   64POPC  H13Y 8566   0.795   4.271   4.537 -0.7199 -0.5536 -0.6153
   64POPC  C314 8567   0.703   4.397   4.401  0.0221 -0.1366 -0.0674
   64POPC  H14X 8568   0.788   4.469   4.406  1.5922 -2.0908  3.3803
   64POPC  H14Y 8569   0.604   4.447   4.392 -1.2078 -1.3902  4.8022
   64POPC  C315 8570   0.720   4.305   4.280  0.1048 -0.3201  0.0821
   64POPC  H15X 8571   0.682   4.364   4.194  1.0608 -0.0135 -0.1442
   64POPC  H15Y 8572   0.646   4.222   4.283  2.1749 -2.2297 -0.5295
   64POPC  C316 8573   0.866   4.263   4.268  0.1976 -0.1414  0.5568
   64POPC  H16X 8574   0.887   4.192   4.352  0.5562 -0.1087  0.4947
   64POPC  H16Y 8575   0.925   4.356   4.279 -0.3240  0.0915  1.4321
   64POPC  H16Z 8576   0.895   4.203   4.179 -0.3626 -0.1797  0.4041
   65POPC     N 8577   4.866   2.761   6.292  0.2490  0.0034 -0.0782
   65POPC   C12 8578   4.812   2.637   6.224  0.1138 -0.2060  0.4110
   65POPC  H12A 8582   4.719   2.655   6.172 -1.1477 -0.7160  2.4207
   65POPC  H12B 8583   4.765   2.569   6.294 -2.1364 -0.4642 -1.2992
   65POPC   C13 8579   4.946   2.710   6.410 -0.5300  0.0486  0.4693
   65POPC  H13A 8584   5.035   2.661   6.372 -0.0283  1.5554 -0.3306
   65POPC  H13B 8585   4.969   2.797   6.469 -2.0173  0.7893 -0.0229
   65POPC  H13C 8586   4.876   2.643   6.458 -0.8080 -0.4511 -0.6085
   65POPC   C14 8580   4.959   2.831   6.196  0.3335  0.8008  0.5801
   65POPC  H14A 8587   5.035   2.763   6.160 -2.0718 -1.6289 -0.0301
   65POPC  H14B 8588   4.902   2.871   6.114  2.0501  0.7654 -0.6719
   65POPC  H14C 8589   4.992   2.915   6.256  0.2845  0.6581  0.8082
   65POPC   C15 8581   4.746   2.846   6.325 -0.1321 -0.5948  0.0958
   65POPC  H15A 8590   4.691   2.868   6.235 -1.8031  0.3622  1.3302
   65POPC  H15B 8591   4.791   2.935   6.368  0.9460 -0.4819 -1.2120
   65POPC  H15C 8592   4.673   2.803   6.392  2.2522 -2.4797  1.5636
   65POPC   C11 8593   4.894   2.542   6.138  0.3705  0.3433  0.0445
   65POPC  H11A 8594   4.924   2.594   6.045  0.6231 -0.1523 -0.1524
   65POPC  H11B 8595   4.828   2.456   6.110 -1.5573  1.5555  0.7749
   65POPC     P 8596   5.058   2.344   6.186 -0.2538 -0.3010  0.2044
   65POPC   O13 8597   4.967   2.255   6.261 -0.5652  0.2252  0.4532
   65POPC   O14 8598   5.198   2.330   6.231 -0.2411 -0.1380  0.2147
   65POPC   O12 8599   5.011   2.496   6.206  0.2629 -0.1066 -0.0681
   65POPC   O11 8600   5.057   2.322   6.027  0.1904 -0.0825  0.1712
   65POPC    C1 8601   5.153   2.381   5.940  0.1950 -0.2889  0.0358
   65POPC    HA 8602   5.179   2.300   5.868 -0.7589  0.0071 -0.6574
   65POPC    HB 8603   5.246   2.409   5.995 -0.5140  0.1408  1.0125
   65POPC    C2 8604   5.109   2.499   5.851 -0.3044 -0.5331 -0.0419
   65POPC    HS 8605   5.106   2.590   5.915 -0.9204  0.4286 -1.4174
   65POPC   O21 8606   4.978   2.470   5.802 -0.2073 -0.3673 -0.4001
   65POPC   C21 8607   4.916   2.572   5.743  0.2314 -0.0801 -0.3655
   65POPC   O22 8608   4.962   2.684   5.733  0.5151 -0.1438  0.2040
   65POPC   C22 8609   4.777   2.531   5.695  0.1274  0.2193 -0.3204
   65POPC   H2R 8610   4.715   2.619   5.722  1.4084  1.1985 -0.4972
   65POPC   H2S 8611   4.738   2.446   5.753 -0.6185  2.8027  3.1406
   65POPC    C3 8612   5.211   2.515   5.737 -0.1191 -0.5757  0.1173
   65POPC    HX 8613   5.314   2.533   5.775  0.1905  0.4328 -1.1850
   65POPC    HY 8614   5.190   2.610   5.684  0.2410 -0.9703 -0.7471
   65POPC   O31 8615   5.198   2.408   5.643 -0.6236 -0.3061 -0.1206
   65POPC   C31 8616   5.312   2.382   5.579 -0.2731 -0.2304  0.4722
   65POPC   O32 8617   5.410   2.454   5.591 -0.1736 -0.1464 -0.7738
   65POPC   C32 8618   5.294   2.260   5.490  0.0705 -0.0042  0.0919
   65POPC   H2X 8619   5.251   2.176   5.549  2.7595 -0.1166  1.9957
   65POPC   H2Y 8620   5.395   2.234   5.453 -0.0528  1.0713 -1.0434
   65POPC   C23 8621   4.766   2.505   5.545 -0.1779 -0.5841 -0.1558
   65POPC   H3R 8622   4.664   2.466   5.520 -0.5870 -1.3011  2.5428
   65POPC   H3S 8623   4.833   2.420   5.519 -2.2472 -2.7414  1.2842
   65POPC   C24 8624   4.789   2.631   5.461  0.0520 -0.4549  0.1027
   65POPC   H4R 8625   4.895   2.663   5.468 -0.3564  1.4515 -1.9430
   65POPC   H4S 8626   4.721   2.711   5.495  1.4425  1.3185 -1.2032
   65POPC   C25 8627   4.756   2.611   5.313  0.2782 -0.0619  0.0022
   65POPC   H5R 8628   4.762   2.708   5.259  1.1390 -0.0106  0.1799
   65POPC   H5S 8629   4.654   2.571   5.297 -0.8063  2.2164  0.9631
   65POPC   C26 8630   4.851   2.510   5.248  0.5572  0.1434  0.0854
   65POPC   H6R 8631   4.837   2.407   5.288  2.0733  0.1492  0.6596
   65POPC   H6S 8632   4.951   2.549   5.277  0.1923 -0.3507  2.1343
   65POPC   C27 8633   4.845   2.519   5.096  0.1063 -0.3329  0.0756
   65POPC   H7R 8634   4.918   2.450   5.049  0.0412 -0.8394  0.7203
   65POPC   H7S 8635   4.880   2.620   5.068  1.7241  0.0288  3.2100
   65POPC   C28 8636   4.707   2.474   5.045  0.0831 -0.0273 -0.1290
   65POPC   H8R 8637   4.642   2.559   5.076  0.5845 -0.1474  1.2553
   65POPC   H8S 8638   4.680   2.396   5.118 -1.3037  1.7184  1.2639
   65POPC   C29 8639   4.688   2.429   4.903 -0.3638  0.0643 -0.0988
   65POPC   H91 8640   4.688   2.324   4.873  0.5640  0.6659 -2.3132
   65POPC  C210 8641   4.640   2.510   4.807  0.0037  0.1110 -0.2409
   65POPC  H101 8642   4.635   2.470   4.704  2.0537 -2.4740  0.5930
   65POPC  C211 8643   4.599   2.653   4.823 -0.0616  0.0267  0.3410
   65POPC  H11R 8644   4.644   2.715   4.903  1.8663 -1.9310  0.8178
   65POPC  H11S 8645   4.490   2.651   4.847 -0.2960  0.0262 -0.6866
   65POPC  C212 8646   4.608   2.710   4.681  0.3991 -0.0434  0.3414
   65POPC  H12R 8647   4.546   2.637   4.623  0.1775 -0.0099  0.5349
   65POPC  H12S 8648   4.710   2.718   4.639  0.6914 -0.2524  1.0056
   65POPC  C213 8649   4.542   2.848   4.679 -0.3573 -0.3994  0.4407
   65POPC  H13R 8650   4.438   2.843   4.717 -0.0435 -0.3715  1.3172
   65POPC  H13S 8651   4.533   2.886   4.575 -2.1993 -2.7880 -0.3217
   65POPC  C214 8652   4.615   2.946   4.771 -0.0074  0.1550 -0.4172
   65POPC  H14R 8653   4.591   2.905   4.872 -1.2035  0.5676 -0.5217
   65POPC  H14S 8654   4.567   3.046   4.777 -0.6985 -0.1523 -0.7531
   65POPC  C215 8655   4.766   2.952   4.753 -0.0088  0.4637 -0.3384
   65POPC  H15R 8656   4.795   2.994   4.654  1.2182 -0.9599 -0.6052
   65POPC  H15S 8657   4.811   2.850   4.762 -0.7777  0.3332  2.2096
   65POPC  C216 8658   4.838   3.038   4.856  0.1248  0.1943 -0.2065
   65POPC  H16R 8659   4.818   2.982   4.950 -0.6977  1.8009  0.6060
   65POPC  H16S 8660   4.794   3.138   4.876 -1.0366 -0.1654 -0.9142
   65POPC  C217 8661   4.990   3.034   4.835  0.1742 -0.0059  0.1809
   65POPC  H17R 8662   5.041   3.097   4.911  1.1891 -0.3945 -0.1789
   65POPC  H17S 8663   5.011   3.083   4.738  0.9177  0.2181  0.4480
   65POPC  C218 8664   5.045   2.892   4.835 -0.0094 -0.0773  0.1147
   65POPC  H18R 8665   4.998   2.829   4.914 -1.9110 -0.3876 -1.2438
   65POPC  H18S 8666   5.155   2.891   4.851  0.0007 -1.4190  0.0405
   65POPC  H18T 8667   5.020   2.840   4.740 -1.7804  1.0526 -0.0556
   65POPC   C33 8668   5.184   2.291   5.389 -0.2361 -0.0489  0.4106
   65POPC   H3X 8669   5.210   2.381   5.329  3.3177 -0.0858  1.8297
   65POPC   H3Y 8670   5.085   2.308   5.437  0.4013  2.2501  0.9584
   65POPC   C34 8671   5.176   2.165   5.302 -0.2842  0.0915  0.2090
   65POPC   H4X 8672   5.136   2.069   5.342 -1.2966  0.0938 -0.7636
   65POPC   H4Y 8673   5.276   2.134   5.266 -0.7343  0.6576 -1.5623
   65POPC   C35 8674   5.093   2.202   5.179 -0.0527 -0.0344  0.0168
   65POPC   H5X 8675   5.140   2.292   5.134 -0.4296 -0.1823 -0.6768
   65POPC   H5Y 8676   4.986   2.220   5.200  0.1543 -0.7971  1.8110
   65POPC   C36 8677   5.096   2.100   5.065 -0.0142 -0.0164  0.0011
   65POPC   H6X 8678   5.092   2.001   5.115  5.3898 -1.2103 -1.6018
   65POPC   H6Y 8679   5.192   2.120   5.011 -0.9365  4.9051 -0.0568
   65POPC   C37 8680   4.991   2.144   4.963  0.0685 -0.1781 -0.1547
   65POPC   H7X 8681   5.013   2.247   4.928 -1.2750 -0.2924 -1.3977
   65POPC   H7Y 8682   4.894   2.162   5.016  1.1355  1.2804  1.3587
   65POPC   C38 8683   4.960   2.053   4.845 -0.2561  0.3368 -0.4703
   65POPC   H8X 8684   4.879   2.089   4.778 -0.3715  1.0780  0.0701
   65POPC   H8Y 8685   4.931   1.949   4.873 -2.2687  0.9647 -0.1236
   65POPC   C39 8686   5.085   2.043   4.758  0.1396  0.8654  0.0418
   65POPC   H9X 8687   5.164   1.996   4.821 -1.0976 -0.1549  0.8547
   65POPC   H9Y 8688   5.126   2.143   4.731 -0.4617  1.6400  1.9135
   65POPC  C310 8689   5.081   1.953   4.635 -0.0551  1.0373 -0.0768
   65POPC  H10X 8690   5.076   1.846   4.662  2.7296  1.1100  0.8570
   65POPC  H10Y 8691   5.179   1.963   4.583 -0.9559  0.9465 -1.8563
   65POPC  C311 8692   4.966   1.981   4.537 -0.0681  0.4257 -0.2379
   65POPC  H11X 8693   4.969   2.088   4.508 -2.7898 -0.1612 -2.8916
   65POPC  H11Y 8694   4.862   1.961   4.571  0.2616 -0.2964  0.3866
   65POPC  C312 8695   4.975   1.896   4.410  0.1670  0.7029 -0.4078
   65POPC  H12X 8696   5.084   1.887   4.390  0.1081 -0.8210 -0.0612
   65POPC  H12Y 8697   4.921   1.939   4.323 -4.3426 -1.1957  1.3072
   65POPC  C313 8698   4.943   1.747   4.419 -0.2506  0.8339  0.3476
   65POPC  H13X 8699   4.987   1.694   4.506 -1.3324  0.7423  0.8487
   65POPC  H13Y 8700   4.971   1.698   4.323  1.3172 -0.2066  1.3124
   65POPC  C314 8701   4.793   1.717   4.433 -0.1865  0.4410  0.2125
   65POPC  H14X 8702   4.760   1.759   4.530 -0.3409 -1.6548  1.0888
   65POPC  H14Y 8703   4.786   1.606   4.441 -1.2621  0.5200  0.3959
   65POPC  C315 8704   4.713   1.781   4.320 -0.5630  0.0426  0.2528
   65POPC  H15X 8705   4.763   1.795   4.222 -0.6821 -1.0124  0.0363
   65POPC  H15Y 8706   4.686   1.878   4.368  2.7863  0.5443  1.2620
   65POPC  C316 8707   4.586   1.703   4.286 -0.3868 -0.1835  0.1170
   65POPC  H16X 8708   4.497   1.763   4.313  0.9721  1.5727  0.7727
   65POPC  H16Y 8709   4.567   1.606   4.336 -2.2618 -0.4509 -1.0381
   65POPC  H16Z 8710   4.580   1.685   4.176 -0.8865 -0.0328  0.1167
   66POPC     N 8711   0.765   5.698   5.905  0.3919 -0.4849 -0.0874
   66POPC   C12 8712   0.636   5.761   5.858  0.8390  0.7373  0.3140
   66POPC  H12A 8716   0.554   5.725   5.918  0.8302 -0.7074 -0.5296
   66POPC  H12B 8717   0.620   5.722   5.759  1.2428  0.5231  0.3334
   66POPC   C13 8713   0.717   5.558   5.937 -0.3307 -0.0472  0.7687
   66POPC  H13A 8718   0.680   5.507   5.849  1.6901  0.5388 -0.4560
   66POPC  H13B 8719   0.796   5.499   5.980  1.9942  1.1989 -1.6505
   66POPC  H13C 8720   0.651   5.557   6.022  2.9918 -4.0269  3.4964
   66POPC   C14 8714   0.878   5.698   5.806  0.6434  0.3620  0.2012
   66POPC  H14A 8721   0.861   5.639   5.717 -1.9422  0.2839  0.7312
   66POPC  H14B 8722   0.890   5.799   5.769  0.9060  0.2521 -0.0185
   66POPC  H14C 8723   0.969   5.663   5.852 -0.0029  0.2710  1.4154
   66POPC   C15 8715   0.815   5.762   6.032 -0.0400 -0.6304  0.1588
   66POPC  H15A 8724   0.865   5.852   6.001  0.5933 -2.2063 -3.6371
   66POPC  H15B 8725   0.880   5.690   6.077 -1.2021 -1.1411  1.0562
   66POPC  H15C 8726   0.730   5.783   6.095 -0.0151 -0.1542  0.0389
   66POPC   C11 8727   0.631   5.914   5.853  0.2240  0.7129  0.1396
   66POPC  H11A 8728   0.597   5.940   5.956  0.3061 -0.3537  0.4474
   66POPC  H11B 8729   0.545   5.938   5.786  1.3822  0.8507 -1.3211
   66POPC     P 8730   0.778   6.122   5.842  0.0471  0.4331 -0.0148
   66POPC   O13 8731   0.910   6.132   5.909  0.4128 -0.5961 -0.5809
   66POPC   O14 8732   0.669   6.189   5.917 -0.2355  0.2666 -0.2794
   66POPC   O12 8733   0.751   5.970   5.801  0.0842  0.5254 -0.3901
   66POPC   O11 8734   0.779   6.186   5.695  0.2665  0.5000  0.0163
   66POPC    C1 8735   0.761   6.326   5.676  0.3158  0.4788 -0.1876
   66POPC    HA 8736   0.769   6.389   5.768 -2.7555  1.9724 -0.8750
   66POPC    HB 8737   0.659   6.345   5.637  0.1016  1.8753  0.9872
   66POPC    C2 8738   0.848   6.374   5.558  0.5463  0.1706 -0.1448
   66POPC    HS 8739   0.827   6.481   5.533 -0.5082 -0.3845 -1.7417
   66POPC   O21 8740   0.830   6.296   5.440  0.1004  0.3208 -0.1779
   66POPC   C21 8741   0.712   6.329   5.386 -0.1455 -0.1317  0.0764
   66POPC   O22 8742   0.645   6.424   5.420  0.1479  0.1845 -0.2208
   66POPC   C22 8743   0.683   6.239   5.266 -0.4394  0.3361 -0.2012
   66POPC   H2R 8744   0.576   6.237   5.236  0.6884 -2.1904 -4.4058
   66POPC   H2S 8745   0.708   6.135   5.295  0.6554  0.8291  0.7054
   66POPC    C3 8746   0.996   6.366   5.598  0.5102  0.9668  0.1537
   66POPC    HX 8747   1.012   6.266   5.643  0.6281  1.3795  1.0378
   66POPC    HY 8748   0.993   6.453   5.668  1.2109 -1.3642  3.2046
   66POPC   O31 8749   1.076   6.382   5.481 -0.0632  0.5071 -0.3020
   66POPC   C31 8750   1.156   6.488   5.481  0.2031  0.3128 -1.0919
   66POPC   O32 8751   1.154   6.576   5.566  1.0113 -0.4637 -0.2587
   66POPC   C32 8752   1.262   6.478   5.372  0.7618  0.2446 -0.5409
   66POPC   H2X 8753   1.273   6.370   5.347 -0.8373  0.5091 -2.4505
   66POPC   H2Y 8754   1.360   6.515   5.411  0.2479 -0.8485  1.9141
   66POPC   C23 8755   0.781   6.265   5.151 -0.4970  0.0673 -0.3101
   66POPC   H3R 8756   0.884   6.248   5.188 -1.3130 -2.0241  1.0891
   66POPC   H3S 8757   0.794   6.374   5.134  2.0921 -0.1543 -0.0105
   66POPC   C24 8758   0.760   6.193   5.018 -0.2748  0.4397 -0.5488
   66POPC   H4R 8759   0.779   6.088   5.049 -0.7487  0.3282 -0.6347
   66POPC   H4S 8760   0.827   6.235   4.940 -1.1297  0.8532 -1.0592
   66POPC   C25 8761   0.617   6.174   4.966 -0.4115 -0.1019  0.0094
   66POPC   H5R 8762   0.583   6.274   4.932  1.3566 -0.0080 -1.6197
   66POPC   H5S 8763   0.555   6.155   5.055 -1.3426  0.4459 -0.5220
   66POPC   C26 8764   0.599   6.070   4.855  0.3413 -0.1687 -0.0564
   66POPC   H6R 8765   0.490   6.053   4.842 -0.0372  1.1463  1.2540
   66POPC   H6S 8766   0.639   5.976   4.898 -0.5670  0.1122  1.4265
   66POPC   C27 8767   0.667   6.107   4.723 -0.1253  0.1653 -0.2037
   66POPC   H7R 8768   0.679   6.019   4.657 -1.4374  0.6342 -1.0770
   66POPC   H7S 8769   0.763   6.159   4.745 -1.3362  0.5710  4.8839
   66POPC   C28 8770   0.578   6.204   4.645 -0.0432  0.4349  0.0378
   66POPC   H8R 8771   0.537   6.285   4.709 -0.7652  0.3366 -0.3031
   66POPC   H8S 8772   0.493   6.144   4.605  1.0842  0.0315 -1.8018
   66POPC   C29 8773   0.664   6.250   4.531  0.1578  0.2416  0.1090
   66POPC   H91 8774   0.771   6.249   4.553  0.5137 -1.4430 -1.6317
   66POPC  C210 8775   0.627   6.291   4.408 -0.1858  0.3160  0.2344
   66POPC  H101 8776   0.705   6.327   4.339 -1.8998 -1.0250 -2.4687
   66POPC  C211 8777   0.484   6.310   4.367 -0.2912 -0.0525  0.4323
   66POPC  H11R 8778   0.454   6.416   4.354 -0.8994 -0.2700  0.0619
   66POPC  H11S 8779   0.417   6.263   4.442 -1.3343  2.6637  1.2420
   66POPC  C212 8780   0.468   6.236   4.234  0.4521  0.3703  0.1039
   66POPC  H12R 8781   0.532   6.299   4.169  0.6786 -0.3709 -0.3945
   66POPC  H12S 8782   0.367   6.246   4.190  0.7872 -1.3215 -1.0894
   66POPC  C213 8783   0.519   6.091   4.238 -0.3620  0.0892  0.4268
   66POPC  H13R 8784   0.627   6.084   4.262  0.3524 -1.6537 -2.8852
   66POPC  H13S 8785   0.499   6.040   4.141 -1.4259 -0.5464  0.9817
   66POPC  C214 8786   0.445   6.007   4.341  0.3317  0.0074  0.8606
   66POPC  H14R 8787   0.336   6.024   4.326  0.3597 -0.8215 -0.2863
   66POPC  H14S 8788   0.475   6.035   4.444  0.5460  0.9922  0.5356
   66POPC  C215 8789   0.453   5.854   4.332 -0.2880 -0.0125  0.5901
   66POPC  H15R 8790   0.557   5.827   4.303 -0.0270  2.1978 -0.6764
   66POPC  H15S 8791   0.383   5.825   4.251 -0.9898  2.7583  0.1360
   66POPC  C216 8792   0.426   5.782   4.464  0.1240 -1.0848  0.0876
   66POPC  H16R 8793   0.472   5.837   4.549  0.0469  0.3520 -0.7878
   66POPC  H16S 8794   0.454   5.674   4.453 -1.8305 -1.5442 -0.5881
   66POPC  C217 8795   0.276   5.783   4.494  0.1369 -0.2194  0.1291
   66POPC  H17R 8796   0.215   5.767   4.403  0.6995  0.4043 -0.3602
   66POPC  H17S 8797   0.248   5.886   4.526  0.0141  0.0103 -0.7116
   66POPC  C218 8798   0.227   5.668   4.582  0.2002 -0.4933 -0.1882
   66POPC  H18R 8799   0.117   5.678   4.595 -0.0377 -0.3732 -2.2451
   66POPC  H18S 8800   0.285   5.666   4.677 -0.9884 -0.4083  0.5504
   66POPC  H18T 8801   0.240   5.573   4.528 -4.0133 -1.6708  0.7028
   66POPC   C33 8802   1.207   6.546   5.247 -0.3526  0.2175 -0.0753
   66POPC   H3X 8803   1.097   6.531   5.243 -0.0497 -1.9679 -1.6617
   66POPC   H3Y 8804   1.252   6.499   5.156 -0.6650 -0.4602  0.1154
   66POPC   C34 8805   1.260   6.689   5.239 -0.1491  0.1777  0.5260
   66POPC   H4X 8806   1.248   6.732   5.341  0.8337  2.9836 -0.4819
   66POPC   H4Y 8807   1.197   6.751   5.171 -0.4599  0.3163  0.9398
   66POPC   C35 8808   1.400   6.693   5.177 -0.2528  0.3260  0.2993
   66POPC   H5X 8809   1.407   6.661   5.070 -1.5690 -2.4337  0.9716
   66POPC   H5Y 8810   1.461   6.624   5.239  0.3962  0.9428  0.3401
   66POPC   C36 8811   1.480   6.822   5.188 -0.1152  0.2006  0.7838
   66POPC   H6X 8812   1.465   6.851   5.294  1.4903  2.4777  0.4332
   66POPC   H6Y 8813   1.430   6.896   5.122 -1.6385 -0.0766  1.6108
   66POPC   C37 8814   1.622   6.796   5.137 -0.3705 -0.2490  0.3024
   66POPC   H7X 8815   1.659   6.697   5.170 -2.4868 -0.9827  0.5733
   66POPC   H7Y 8816   1.690   6.880   5.163 -0.8478  0.1035  0.4140
   66POPC   C38 8817   1.625   6.803   4.984  0.4456  0.2407  0.3419
   66POPC   H8X 8818   1.614   6.908   4.948  2.5019  0.0122 -1.0321
   66POPC   H8Y 8819   1.546   6.755   4.923 -0.8166  0.8089  1.5201
   66POPC   C39 8820   1.748   6.734   4.925 -0.0891 -0.6160  0.2289
   66POPC   H9X 8821   1.744   6.635   4.975 -2.1587 -0.3504  0.6394
   66POPC   H9Y 8822   1.838   6.783   4.967  0.4775 -1.1159 -0.3718
   66POPC  C310 8823   1.754   6.722   4.772  0.0739  0.1300  0.1751
   66POPC  H10X 8824   1.674   6.659   4.728  0.9530 -0.1305 -1.0741
   66POPC  H10Y 8825   1.849   6.675   4.738  0.0109  2.5514 -3.6574
   66POPC  C311 8826   1.744   6.855   4.697 -0.3730  0.0194  0.0419
   66POPC  H11X 8827   1.669   6.925   4.740  1.2570  2.8426 -1.6063
   66POPC  H11Y 8828   1.712   6.839   4.592  1.3780  1.9375 -0.8032
   66POPC  C312 8829   1.875   6.932   4.711 -0.0354 -0.5443 -0.0099
   66POPC  H12X 8830   1.958   6.874   4.664 -0.2557  0.4160 -1.6051
   66POPC  H12Y 8831   1.900   6.936   4.819 -2.3449  0.5382  0.5154
   66POPC  C313 8832   1.867   7.073   4.653 -0.3471 -0.5054  0.1249
   66POPC  H13X 8833   1.848   7.064   4.544  1.4978  1.1422 -0.3668
   66POPC  H13Y 8834   1.957   7.135   4.676 -1.4870  0.5400  1.9174
   66POPC  C314 8835   1.754   7.164   4.702  0.1326  0.2213 -0.1123
   66POPC  H14X 8836   1.653   7.132   4.668  0.8580 -0.0109 -2.1575
   66POPC  H14Y 8837   1.765   7.269   4.666  3.3488  0.0615  0.2572
   66POPC  C315 8838   1.746   7.169   4.854 -0.0210 -0.2201 -0.1071
   66POPC  H15X 8839   1.848   7.207   4.878  0.0621  1.8288 -3.4012
   66POPC  H15Y 8840   1.724   7.065   4.888 -1.3771  0.2401  0.4460
   66POPC  C316 8841   1.619   7.233   4.911  0.6519  0.8889  0.1512
   66POPC  H16X 8842   1.638   7.342   4.927 -0.1460  1.0310  0.1646
   66POPC  H16Y 8843   1.601   7.183   5.008 -2.1808 -1.7893 -1.6922
   66POPC  H16Z 8844   1.527   7.225   4.850 -0.9954 -1.8830  2.8860
   67POPC     N 8845   2.286   4.809   5.880 -0.1648  0.0326 -0.1340
   67POPC   C12 8846   2.409   4.799   5.793 -0.4998 -0.2335 -0.5778
   67POPC  H12A 8850   2.412   4.701   5.749  1.7224  0.7699 -2.8115
   67POPC  H12B 8851   2.495   4.797   5.857 -1.0906 -1.9289  0.1673
   67POPC   C13 8847   2.295   4.712   5.995 -0.6986  0.2259  0.0750
   67POPC  H13A 8852   2.282   4.609   5.964  1.3532 -0.1751  0.4788
   67POPC  H13B 8853   2.391   4.719   6.045 -1.1662 -1.0645  1.1951
   67POPC  H13C 8854   2.204   4.727   6.051 -0.8767  0.3224 -0.2399
   67POPC   C14 8848   2.267   4.945   5.943  0.3263  0.0010  0.0813
   67POPC  H14A 8855   2.184   4.950   6.012 -0.8324 -0.1219 -1.2838
   67POPC  H14B 8856   2.358   4.956   6.000  0.5658 -3.0997  0.3679
   67POPC  H14C 8857   2.260   5.025   5.871 -1.1390  0.4228  0.6820
   67POPC   C15 8849   2.164   4.785   5.794 -0.3550  0.7132 -0.0628
   67POPC  H15A 8858   2.179   4.689   5.746 -1.4851  0.7824 -0.5757
   67POPC  H15B 8859   2.158   4.864   5.721 -1.3511 -1.1106 -2.0315
   67POPC  H15C 8860   2.072   4.787   5.850 -1.2671 -0.0788 -1.5092
   67POPC   C11 8861   2.429   4.913   5.692 -0.2301  0.2321 -0.0048
   67POPC  H11A 8862   2.346   4.922   5.619  0.3985 -0.2174 -0.7961
   67POPC  H11B 8863   2.517   4.884   5.630 -1.8610  0.0303 -2.2636
   67POPC     P 8864   2.410   5.172   5.695 -0.0573 -0.0816  0.6161
   67POPC   O13 8865   2.504   5.281   5.729  0.0550  0.0799 -0.1953
   67POPC   O14 8866   2.271   5.179   5.748 -0.2645  0.4766  0.0056
   67POPC   O12 8867   2.470   5.036   5.752  0.3318 -0.0695  0.2359
   67POPC   O11 8868   2.406   5.156   5.536  0.4340 -0.0965  0.6075
   67POPC    C1 8869   2.500   5.231   5.459 -0.0184  0.3120  0.4533
   67POPC    HA 8870   2.522   5.165   5.373 -2.9501  0.2995 -0.3311
   67POPC    HB 8871   2.594   5.240   5.518  1.4950  1.0179 -1.9932
   67POPC    C2 8872   2.449   5.371   5.421 -0.1010 -0.0014 -0.5920
   67POPC    HS 8873   2.443   5.421   5.520  0.5836  2.0474 -1.5439
   67POPC   O21 8874   2.318   5.346   5.370 -0.2889  0.1763 -0.1976
   67POPC   C21 8875   2.247   5.456   5.346 -0.9348 -0.0835  0.4911
   67POPC   O22 8876   2.273   5.570   5.381 -0.2799 -0.1290  0.1736
   67POPC   C22 8877   2.106   5.432   5.295 -0.6616  0.5166 -0.5586
   67POPC   H2R 8878   2.047   5.510   5.347 -3.0667 -0.6903 -1.3863
   67POPC   H2S 8879   2.052   5.343   5.334 -1.9521  1.2820 -0.5464
   67POPC    C3 8880   2.536   5.448   5.320 -0.5940  0.9276 -0.3177
   67POPC    HX 8881   2.641   5.428   5.351 -0.8430  1.6829  1.0507
   67POPC    HY 8882   2.509   5.556   5.317 -0.0990  1.0801  0.6651
   67POPC   O31 8883   2.522   5.395   5.187 -0.2530  0.7970 -0.3045
   67POPC   C31 8884   2.596   5.466   5.102  0.0856  0.1143 -0.5755
   67POPC   O32 8885   2.672   5.559   5.127  0.3215 -0.2718  0.1589
   67POPC   C32 8886   2.584   5.399   4.966 -0.0207 -0.3424 -0.3439
   67POPC   H2X 8887   2.494   5.443   4.919  0.0728  0.1348 -0.0837
   67POPC   H2Y 8888   2.584   5.290   4.988 -0.3336  0.2583  2.9021
   67POPC   C23 8889   2.109   5.460   5.144 -0.0269  0.3386 -0.5794
   67POPC   H3R 8890   2.177   5.546   5.128  0.8022  0.1350  1.6983
   67POPC   H3S 8891   2.008   5.503   5.125  0.3923  1.7212  0.2271
   67POPC   C24 8892   2.137   5.339   5.055 -0.3664 -0.1485 -0.0287
   67POPC   H4R 8893   2.071   5.253   5.079  0.5246 -0.8127  0.0951
   67POPC   H4S 8894   2.241   5.304   5.073  0.6175  2.5743 -0.2083
   67POPC   C25 8895   2.107   5.379   4.911  0.0739 -0.0384 -0.0915
   67POPC   H5R 8896   2.167   5.466   4.877 -0.5129  0.7901  1.0011
   67POPC   H5S 8897   2.000   5.407   4.902  0.5656  2.4147  1.4232
   67POPC   C26 8898   2.135   5.272   4.805  0.2750  0.7333 -0.8201
   67POPC   H6R 8899   2.085   5.295   4.708 -0.8012  0.2024 -0.3928
   67POPC   H6S 8900   2.088   5.178   4.841 -0.7993  1.3175 -0.7010
   67POPC   C27 8901   2.285   5.242   4.804  0.3290  0.9792 -0.0694
   67POPC   H7R 8902   2.315   5.199   4.902  1.6134  1.8960 -0.0520
   67POPC   H7S 8903   2.351   5.327   4.779  1.6423 -0.4097 -1.4322
   67POPC   C28 8904   2.313   5.139   4.694 -0.1957  0.3091  0.4166
   67POPC   H8R 8905   2.305   5.189   4.595  0.1078 -0.2208  0.1243
   67POPC   H8S 8906   2.231   5.064   4.697  0.0099 -0.0353 -1.8368
   67POPC   C29 8907   2.451   5.086   4.718 -0.2894 -0.1054  0.0493
   67POPC   H91 8908   2.528   5.165   4.720  0.2255 -0.6140  0.6504
   67POPC  C210 8909   2.496   4.962   4.743 -0.4461 -0.0821  0.4592
   67POPC  H101 8910   2.604   4.945   4.746 -0.2447  1.1701  0.3168
   67POPC  C211 8911   2.417   4.836   4.766  0.3680 -0.7203 -0.1960
   67POPC  H11R 8912   2.484   4.751   4.790  1.3355  0.1276  0.1411
   67POPC  H11S 8913   2.349   4.815   4.680 -0.0537 -1.0347  0.2140
   67POPC  C212 8914   2.322   4.849   4.886  0.7957  0.6042  0.0123
   67POPC  H12R 8915   2.223   4.886   4.853  0.5660 -0.8293 -0.9902
   67POPC  H12S 8916   2.361   4.927   4.955 -1.3265  0.5679  1.2960
   67POPC  C213 8917   2.297   4.711   4.947  0.3836  0.9304  0.5866
   67POPC  H13R 8918   2.286   4.637   4.864 -1.0516  0.9030  0.8000
   67POPC  H13S 8919   2.195   4.692   4.986  0.8816 -1.1232  0.9560
   67POPC  C214 8920   2.402   4.657   5.044  0.2836  0.1656  0.2743
   67POPC  H14R 8921   2.504   4.701   5.034  0.1553  0.7266  1.3959
   67POPC  H14S 8922   2.418   4.547   5.044  0.8439  0.2447 -0.0865
   67POPC  C215 8923   2.358   4.684   5.188 -0.8351 -0.1579 -0.0056
   67POPC  H15R 8924   2.259   4.637   5.206  0.4532 -4.1729 -2.7353
   67POPC  H15S 8925   2.355   4.793   5.210  2.2435 -0.6728  3.5113
   67POPC  C216 8926   2.449   4.613   5.288 -0.4863  0.2863 -0.0053
   67POPC  H16R 8927   2.412   4.643   5.388 -1.7140  0.9557 -0.6413
   67POPC  H16S 8928   2.550   4.659   5.288 -0.9859  1.3915 -0.1032
   67POPC  C217 8929   2.451   4.460   5.288  0.1256  0.2950  0.2331
   67POPC  H17R 8930   2.480   4.422   5.187  1.9417 -1.5115  1.3876
   67POPC  H17S 8931   2.342   4.438   5.292 -0.2143  2.0625  1.4148
   67POPC  C218 8932   2.520   4.369   5.389 -0.6831 -0.9924 -0.3597
   67POPC  H18R 8933   2.481   4.265   5.378 -2.1632 -0.3479 -1.2654
   67POPC  H18S 8934   2.496   4.405   5.492  0.2792  1.5167 -0.9766
   67POPC  H18T 8935   2.630   4.381   5.393 -0.9452  1.8954 -1.1101
   67POPC   C33 8936   2.701   5.448   4.880 -0.2298  0.2824 -0.2740
   67POPC   H3X 8937   2.796   5.406   4.919  2.6328  5.2749 -1.3301
   67POPC   H3Y 8938   2.715   5.558   4.890 -2.5124  0.6511 -0.9088
   67POPC   C34 8939   2.677   5.410   4.734  0.0879 -0.7952 -0.0446
   67POPC   H4X 8940   2.585   5.462   4.702  1.1621  1.5481  0.5644
   67POPC   H4Y 8941   2.647   5.303   4.732  2.4477 -1.5148  0.7460
   67POPC   C35 8942   2.794   5.450   4.644 -0.5068  0.4631 -0.2675
   67POPC   H5X 8943   2.782   5.414   4.540 -1.1729 -1.3245  0.4095
   67POPC   H5Y 8944   2.881   5.388   4.676 -1.2214  0.3792  1.5766
   67POPC   C36 8945   2.831   5.598   4.652  0.4419  0.2175 -0.0016
   67POPC   H6X 8946   2.870   5.620   4.753 -0.1515 -0.3412  0.3477
   67POPC   H6Y 8947   2.744   5.662   4.624  0.7638  0.2588 -0.9290
   67POPC   C37 8948   2.946   5.632   4.556  0.7532 -1.0966 -0.1024
   67POPC   H7X 8949   3.037   5.570   4.571  2.4606  1.6257  1.1015
   67POPC   H7Y 8950   2.969   5.737   4.585 -0.1328 -1.1159  0.7285
   67POPC   C38 8951   2.920   5.625   4.406  0.0542  0.0899 -0.0438
   67POPC   H8X 8952   2.828   5.683   4.383 -0.2162 -1.1304 -2.1447
   67POPC   H8Y 8953   2.909   5.523   4.362  1.4413  0.3162 -0.9300
   67POPC   C39 8954   3.034   5.676   4.318 -0.2444  1.2158  0.2185
   67POPC   H9X 8955   3.115   5.600   4.316 -1.3237 -0.0597  2.5703
   67POPC   H9Y 8956   3.080   5.765   4.367  0.5803 -0.5494  2.7909
   67POPC  C310 8957   2.990   5.709   4.176 -0.3886  0.5161  0.1001
   67POPC  H10X 8958   2.913   5.789   4.181 -0.0309  1.0651 -2.1563
   67POPC  H10Y 8959   2.949   5.617   4.129 -0.9821 -0.0938  1.8104
   67POPC  C311 8960   3.087   5.782   4.083  0.1307 -0.3126 -0.0108
   67POPC  H11X 8961   3.153   5.707   4.033 -1.8605 -0.9785 -1.6995
   67POPC  H11Y 8962   3.139   5.840   4.163 -0.0903 -0.6071  0.3461
   67POPC  C312 8963   3.012   5.871   3.985  0.7213  0.2045  0.0003
   67POPC  H12X 8964   3.079   5.941   3.931  1.3128 -0.1432  0.2874
   67POPC  H12Y 8965   2.945   5.937   4.044  0.4369 -1.1347  1.2040
   67POPC  C313 8966   2.938   5.770   3.897 -0.0204  0.7814 -0.0501
   67POPC  H13X 8967   2.857   5.723   3.957  1.3285 -0.8501  0.5312
   67POPC  H13Y 8968   3.017   5.699   3.863 -0.1295  1.6790 -2.2449
   67POPC  C314 8969   2.881   5.842   3.775  0.0343  0.2943 -0.3624
   67POPC  H14X 8970   2.809   5.772   3.727  0.4921 -2.6212  3.0072
   67POPC  H14Y 8971   2.956   5.882   3.704  2.0713 -0.5223  1.2953
   67POPC  C315 8972   2.788   5.957   3.814 -0.4001 -0.3648  0.5800
   67POPC  H15X 8973   2.843   6.029   3.878  0.5236 -0.8342  0.3261
   67POPC  H15Y 8974   2.718   5.901   3.879 -2.2921  0.9580 -0.2881
   67POPC  C316 8975   2.717   6.032   3.702  0.4046  0.4329  0.5939
   67POPC  H16X 8976   2.778   6.121   3.675  1.2294 -0.0498  0.8707
   67POPC  H16Y 8977   2.621   6.058   3.751 -2.0608 -0.1653 -3.6533
   67POPC  H16Z 8978   2.700   5.976   3.608  0.8392  0.7970  0.2925
   68POPC     N 8979   4.158   4.284   6.024 -0.0730  0.3521  0.2663
   68POPC   C12 8980   4.011   4.293   6.059 -0.0755  0.1336  0.3137
   68POPC  H12A 8984   3.980   4.395   6.039 -6.0646 -1.4733  0.3742
   68POPC  H12B 8985   4.003   4.274   6.165  1.8135 -0.7080  0.3328
   68POPC   C13 8981   4.177   4.311   5.877 -1.0204 -0.3106  0.0116
   68POPC  H13A 8986   4.278   4.282   5.852 -0.8623  0.4950 -0.2972
   68POPC  H13B 8987   4.110   4.246   5.823 -1.2377  0.7812 -1.0467
   68POPC  H13C 8988   4.160   4.415   5.852 -2.3745 -1.0726 -2.3820
   68POPC   C14 8982   4.236   4.377   6.114  1.4268 -0.4683 -0.1678
   68POPC  H14A 8989   4.203   4.360   6.215  0.2429  1.0701 -0.2769
   68POPC  H14B 8990   4.343   4.368   6.113  1.3633 -1.4943  1.3322
   68POPC  H14C 8991   4.198   4.477   6.098 -0.4940 -1.1047  0.3395
   68POPC   C15 8983   4.203   4.142   6.050 -0.2361  0.3032  0.2783
   68POPC  H15A 8992   4.310   4.128   6.036 -0.2258  0.9512 -0.3342
   68POPC  H15B 8993   4.143   4.080   5.985 -0.4596  1.5320 -0.7177
   68POPC  H15C 8994   4.180   4.121   6.153  1.0301 -1.9797  0.1348
   68POPC   C11 8995   3.907   4.222   5.972 -0.2890  0.0869  0.6054
   68POPC  H11A 8996   3.909   4.251   5.865  0.7614  1.0669  0.8854
   68POPC  H11B 8997   3.807   4.248   6.011  0.2043  1.5896  0.8884
   68POPC     P 8998   3.838   3.986   6.056  0.0977  0.0438  0.4304
   68POPC   O13 8999   3.789   4.064   6.172 -0.8827 -0.1022  0.1210
   68POPC   O14 9000   3.916   3.866   6.092  0.2370 -0.1387 -0.4871
   68POPC   O12 9001   3.927   4.080   5.963 -0.2383  0.1213  0.1872
   68POPC   O11 9002   3.713   3.946   5.964  0.0625  0.1063  0.4515
   68POPC    C1 9003   3.694   3.820   5.899 -0.3108  0.3363  0.1171
   68POPC    HA 9004   3.586   3.812   5.875 -0.2096  0.5289 -0.3975
   68POPC    HB 9005   3.722   3.735   5.965 -2.0091 -1.5561 -1.5233
   68POPC    C2 9006   3.772   3.809   5.768 -0.2064  0.3518  0.1776
   68POPC    HS 9007   3.880   3.798   5.795 -0.0394  2.3086  0.3605
   68POPC   O21 9008   3.755   3.939   5.711  0.1928  0.3759  0.1057
   68POPC   C21 9009   3.860   3.982   5.641  0.1058  0.2517 -0.1025
   68POPC   O22 9010   3.966   3.928   5.616 -0.3240 -0.4535 -0.4057
   68POPC   C22 9011   3.822   4.120   5.588 -0.1150  0.0512 -0.4672
   68POPC   H2R 9012   3.812   4.190   5.674  1.0109 -1.6969  1.1364
   68POPC   H2S 9013   3.724   4.123   5.536 -1.8885  0.9415  2.8032
   68POPC    C3 9014   3.717   3.702   5.672  0.1647  0.5543 -0.2641
   68POPC    HX 9015   3.607   3.715   5.675  0.1937  0.5619  0.7116
   68POPC    HY 9016   3.737   3.610   5.730 -2.3123 -1.4432 -2.4406
   68POPC   O31 9017   3.757   3.695   5.534  0.1664 -0.4059 -0.2200
   68POPC   C31 9018   3.874   3.633   5.518 -0.0755 -0.9950  0.2765
   68POPC   O32 9019   3.936   3.580   5.609 -0.0184 -1.0394  0.2115
   68POPC   C32 9020   3.930   3.654   5.378 -0.0709 -0.3745  0.3706
   68POPC   H2X 9021   4.032   3.699   5.383 -0.5690  0.8548 -0.1894
   68POPC   H2Y 9022   3.865   3.712   5.309  1.0683  1.3610  0.7043
   68POPC   C23 9023   3.930   4.187   5.503 -0.1242  0.5499 -0.0858
   68POPC   H3R 9024   4.029   4.174   5.551 -0.6919  3.2931  1.9286
   68POPC   H3S 9025   3.906   4.296   5.501  0.3168  0.6777  1.0741
   68POPC   C24 9026   3.945   4.126   5.364 -0.3011 -0.5630  0.3831
   68POPC   H4R 9027   3.937   4.015   5.367  0.5509 -0.6202  0.7321
   68POPC   H4S 9028   4.049   4.149   5.332 -0.8217  1.7984  0.3312
   68POPC   C25 9029   3.853   4.195   5.263  0.4912 -0.1935 -0.0909
   68POPC   H5R 9030   3.880   4.302   5.274  0.9258 -0.1198 -1.7823
   68POPC   H5S 9031   3.749   4.188   5.302  1.1053 -0.1859  1.5990
   68POPC   C26 9032   3.855   4.142   5.120 -0.5732  0.0675 -0.2078
   68POPC   H6R 9033   3.955   4.140   5.071 -0.5776  0.8700 -0.2609
   68POPC   H6S 9034   3.801   4.219   5.061 -1.7707  0.4319  1.3497
   68POPC   C27 9035   3.788   4.007   5.094  0.1597 -0.3358 -0.0439
   68POPC   H7R 9036   3.681   4.014   5.124  0.4100  0.1847  0.7409
   68POPC   H7S 9037   3.832   3.930   5.160  2.4557 -0.1763 -1.3329
   68POPC   C28 9038   3.831   3.963   4.954  0.0493  0.1737 -0.2408
   68POPC   H8R 9039   3.941   3.949   4.956  0.0310  0.1936  1.1602
   68POPC   H8S 9040   3.803   4.045   4.884 -0.4745  1.6311  1.6185
   68POPC   C29 9041   3.744   3.852   4.905  0.0793  0.1347 -0.2073
   68POPC   H91 9042   3.687   3.805   4.987  1.2489  1.9451  1.6733
   68POPC  C210 9043   3.733   3.804   4.780  0.1860 -0.0195 -0.1581
   68POPC  H101 9044   3.680   3.713   4.750 -0.0052  0.4747 -1.3472
   68POPC  C211 9045   3.802   3.863   4.660  0.0331 -0.2816 -0.3750
   68POPC  H11R 9046   3.840   3.773   4.607 -1.4340 -2.0855  1.5584
   68POPC  H11S 9047   3.893   3.916   4.695  0.1042  1.0936 -2.5664
   68POPC  C212 9048   3.723   3.954   4.566  0.0039 -0.0768 -0.1533
   68POPC  H12R 9049   3.664   4.029   4.623  3.3790  1.6956  1.1349
   68POPC  H12S 9050   3.643   3.895   4.515 -0.0283  1.5710 -2.0891
   68POPC  C213 9051   3.813   4.024   4.464  0.1601  0.1393  0.1319
   68POPC  H13R 9052   3.875   4.105   4.506  0.8573  0.4864 -1.5198
   68POPC  H13S 9053   3.754   4.056   4.375 -0.4080  0.5516  0.6606
   68POPC  C214 9054   3.914   3.927   4.402 -0.1314 -0.1204  0.0566
   68POPC  H14R 9055   3.854   3.837   4.375 -0.6441  0.2275  0.0320
   68POPC  H14S 9056   3.992   3.903   4.478 -0.9824 -3.8904 -0.1484
   68POPC  C215 9057   3.984   3.980   4.276 -0.9324 -0.4750 -0.5397
   68POPC  H15R 9058   4.055   4.060   4.303 -3.9509  1.5826  1.6890
   68POPC  H15S 9059   3.909   4.032   4.212 -0.0529  0.7069 -0.6341
   68POPC  C216 9060   4.055   3.867   4.201  0.4475 -0.0568  0.1267
   68POPC  H16R 9061   4.117   3.806   4.271  0.9320 -0.6002 -0.7695
   68POPC  H16S 9062   4.126   3.923   4.136  1.8388 -0.1775  1.4965
   68POPC  C217 9063   3.975   3.782   4.103  0.0981  0.3624  0.0424
   68POPC  H17R 9064   3.950   3.849   4.018  1.2409 -0.4321 -0.9329
   68POPC  H17S 9065   3.880   3.760   4.156 -1.6990  0.1703 -3.0839
   68POPC  C218 9066   4.036   3.657   4.038  0.5809  0.6806 -0.1183
   68POPC  H18R 9067   4.067   3.589   4.120 -1.6662  1.1654  1.1780
   68POPC  H18S 9068   4.122   3.676   3.970 -0.2006 -1.1084 -1.6415
   68POPC  H18T 9069   3.959   3.603   3.979  1.2026  0.3485 -0.6315
   68POPC   C33 9070   3.923   3.516   5.312  0.5405  0.0461 -0.5868
   68POPC   H3X 9071   3.826   3.463   5.327  1.4634 -2.2414 -2.4659
   68POPC   H3Y 9072   4.001   3.464   5.370 -0.6941  0.4627  1.5185
   68POPC   C34 9073   3.954   3.534   5.164  0.1788 -0.2098 -0.6949
   68POPC   H4X 9074   4.032   3.460   5.137  1.9589  0.7667  1.6250
   68POPC   H4Y 9075   3.991   3.635   5.134  1.7440 -0.9296 -1.2378
   68POPC   C35 9076   3.836   3.509   5.070 -0.6779  0.2424  0.2480
   68POPC   H5X 9077   3.861   3.536   4.965  0.6666  0.1972  0.5478
   68POPC   H5Y 9078   3.762   3.586   5.100  0.3519  0.3588  2.5626
   68POPC   C36 9079   3.782   3.366   5.072 -0.1463  0.0384  0.1354
   68POPC   H6X 9080   3.746   3.333   5.172 -0.5567  1.6435  0.5349
   68POPC   H6Y 9081   3.863   3.300   5.034 -0.4165 -1.0568  1.4202
   68POPC   C37 9082   3.657   3.350   4.985 -0.1231  0.8594 -0.0489
   68POPC   H7X 9083   3.578   3.428   4.991 -1.8315 -0.9073  1.0649
   68POPC   H7Y 9084   3.599   3.261   5.017 -2.1630  2.1035 -0.2130
   68POPC   C38 9085   3.695   3.327   4.839 -0.2275 -0.0191  0.0632
   68POPC   H8X 9086   3.747   3.229   4.845 -0.9582 -0.4355 -0.3785
   68POPC   H8Y 9087   3.770   3.395   4.793  1.0798 -2.2276 -1.1364
   68POPC   C39 9088   3.570   3.329   4.751 -0.3818  0.4870  0.2924
   68POPC   H9X 9089   3.599   3.334   4.644  0.5797  0.4095  0.5417
   68POPC   H9Y 9090   3.513   3.422   4.770 -2.0426 -0.7130  1.3316
   68POPC  C310 9091   3.479   3.210   4.783  0.0679  0.0738  0.0514
   68POPC  H10X 9092   3.422   3.228   4.877 -0.2598 -0.5189 -0.0313
   68POPC  H10Y 9093   3.531   3.112   4.792 -2.0517 -1.1228 -0.3730
   68POPC  C311 9094   3.392   3.207   4.657  0.1262  0.4733  0.0020
   68POPC  H11X 9095   3.440   3.173   4.563 -0.8730 -0.7310 -0.0832
   68POPC  H11Y 9096   3.368   3.313   4.632 -2.2666 -1.0915 -4.8683
   68POPC  C312 9097   3.274   3.112   4.681  0.3317  0.2627  0.1831
   68POPC  H12X 9098   3.213   3.147   4.767  0.3465 -2.3494  1.2862
   68POPC  H12Y 9099   3.302   3.007   4.704  1.7816  0.5626 -0.1537
   68POPC  C313 9100   3.192   3.097   4.552  0.0696  0.0486  0.3753
   68POPC  H13X 9101   3.138   3.001   4.568  1.6315 -0.8719  0.3336
   68POPC  H13Y 9102   3.263   3.087   4.467 -1.0869 -2.5117 -0.3461
   68POPC  C314 9103   3.097   3.212   4.521  0.4107  0.1299 -0.3847
   68POPC  H14X 9104   3.050   3.198   4.422  0.1878  0.9364 -0.3980
   68POPC  H14Y 9105   3.168   3.296   4.506  1.4465 -1.0209 -1.9962
   68POPC  C315 9106   2.997   3.267   4.623  0.6436  0.2069 -0.1979
   68POPC  H15X 9107   2.934   3.184   4.662  0.3643  0.4689 -0.0929
   68POPC  H15Y 9108   2.919   3.327   4.571  0.4390  1.3165  1.3408
   68POPC  C316 9109   3.052   3.354   4.736  0.4341  0.0421  0.0320
   68POPC  H16X 9110   3.116   3.309   4.815  1.9733  3.6661  0.9695
   68POPC  H16Y 9111   2.978   3.412   4.796  0.6097  0.2227  0.0717
   68POPC  H16Z 9112   3.111   3.436   4.690 -0.3556  0.7360  0.2373
   69POPC     N 9113   3.490   5.730   6.223 -0.4961 -0.0160 -0.0364
   69POPC   C12 9114   3.425   5.835   6.137 -0.0350 -0.4463 -0.9159
   69POPC  H12A 9118   3.371   5.904   6.201  3.8874  0.6937  1.3227
   69POPC  H12B 9119   3.357   5.772   6.080  0.6513 -1.7901 -0.2632
   69POPC   C13 9115   3.384   5.665   6.308 -0.2632 -0.4127 -0.0474
   69POPC  H13A 9120   3.420   5.626   6.402 -0.5837 -1.7730 -0.4701
   69POPC  H13B 9121   3.311   5.740   6.334  1.5101  0.9228  1.1411
   69POPC  H13C 9122   3.332   5.584   6.259  0.2436 -0.2325 -0.8932
   69POPC   C14 9116   3.570   5.631   6.142  0.2521  0.8063 -0.3175
   69POPC  H14A 9123   3.589   5.541   6.199  2.6549  1.3206 -0.2422
   69POPC  H14B 9124   3.506   5.597   6.062 -0.5819 -2.1785  1.5251
   69POPC  H14C 9125   3.650   5.682   6.090  1.5582 -0.8132  0.0621
   69POPC   C15 9117   3.599   5.789   6.310 -0.3854 -0.1523 -0.0825
   69POPC  H15A 9126   3.619   5.709   6.380 -0.1873  0.1157  0.1676
   69POPC  H15B 9127   3.564   5.876   6.364 -0.0522 -0.2900  0.3540
   69POPC  H15C 9128   3.677   5.804   6.237 -0.8684 -3.3885 -1.3499
   69POPC   C11 9129   3.516   5.916   6.045  0.3231  0.0394 -0.1386
   69POPC  H11A 9130   3.603   5.966   6.093 -0.5795  0.3643  1.1620
   69POPC  H11B 9131   3.458   6.001   6.003  1.4078  1.0497  0.3719
   69POPC     P 9132   3.612   5.931   5.814  0.2336  0.3554  0.0202
   69POPC   O13 9133   3.660   5.842   5.706  0.1194  0.0578  0.2157
   69POPC   O14 9134   3.718   6.024   5.858  0.4184 -0.0684  0.4755
   69POPC   O12 9135   3.565   5.838   5.935  0.5592  0.0824 -0.0624
   69POPC   O11 9136   3.488   6.017   5.761  0.0187 -0.2518 -0.4774
   69POPC    C1 9137   3.361   5.953   5.749 -0.4426  0.4755  0.4333
   69POPC    HA 9138   3.288   6.023   5.796  0.5913  1.6708  0.2971
   69POPC    HB 9139   3.359   5.858   5.806  2.0256  0.6972  0.9479
   69POPC    C2 9140   3.328   5.940   5.599 -0.2854 -0.5124  0.4830
   69POPC    HS 9141   3.227   5.894   5.602  0.9060 -3.1858  1.6349
   69POPC   O21 9142   3.422   5.857   5.529 -0.0330 -0.0439  0.2608
   69POPC   C21 9143   3.371   5.790   5.425 -0.2158  0.3602  0.0893
   69POPC   O22 9144   3.254   5.788   5.391 -0.2775 -0.2658  0.3337
   69POPC   C22 9145   3.490   5.728   5.353 -0.6165 -0.3965  0.0773
   69POPC   H2R 9146   3.506   5.622   5.380  0.7500 -0.1670  0.2113
   69POPC   H2S 9147   3.574   5.799   5.367 -1.0937  0.1941 -0.0373
   69POPC    C3 9148   3.308   6.078   5.534  0.0957 -0.5305  0.3232
   69POPC    HX 9149   3.405   6.131   5.527 -1.4977  2.4977  0.2269
   69POPC    HY 9150   3.240   6.140   5.596  0.0622 -0.3480  0.1045
   69POPC   O31 9151   3.268   6.076   5.397  0.0987 -0.7546  0.3252
   69POPC   C31 9152   3.136   6.067   5.383  0.0665  0.4470 -0.2602
   69POPC   O32 9153   3.053   6.077   5.472 -0.0624 -0.2551 -0.2936
   69POPC   C32 9154   3.112   6.040   5.235  0.0998  0.4799 -0.2722
   69POPC   H2X 9155   3.192   5.974   5.196  0.3681  0.5445  0.1661
   69POPC   H2Y 9156   3.118   6.131   5.171  1.8035 -0.6020 -1.7011
   69POPC   C23 9157   3.452   5.732   5.204 -0.2520  0.3412  0.0020
   69POPC   H3R 9158   3.392   5.820   5.173  2.0561  1.3305 -1.8068
   69POPC   H3S 9159   3.390   5.645   5.177  0.7442 -0.1563 -0.7100
   69POPC   C24 9160   3.577   5.736   5.115 -0.1938  0.0394  0.0692
   69POPC   H4R 9161   3.647   5.655   5.144  2.3660  2.3627  0.5568
   69POPC   H4S 9162   3.643   5.824   5.119 -0.5136  0.3555 -1.2873
   69POPC   C25 9163   3.547   5.707   4.968  0.3946  0.0601 -0.0540
   69POPC   H5R 9164   3.499   5.608   4.958 -0.0768  0.3462 -0.6725
   69POPC   H5S 9165   3.637   5.712   4.902  1.2894  0.8490  1.2023
   69POPC   C26 9166   3.448   5.798   4.894  0.4726  0.1640 -0.0323
   69POPC   H6R 9167   3.347   5.782   4.938  0.9295  1.9130  1.7240
   69POPC   H6S 9168   3.450   5.762   4.788  1.2971  0.2736 -0.0556
   69POPC   C27 9169   3.483   5.947   4.895  0.1128  0.2476  0.1146
   69POPC   H7R 9170   3.588   5.953   4.860  0.0619 -0.1121 -0.1064
   69POPC   H7S 9171   3.467   5.980   5.000  0.2147 -1.4124  0.6739
   69POPC   C28 9172   3.396   6.028   4.799 -0.0909 -0.3894 -0.2475
   69POPC   H8R 9173   3.338   6.100   4.862  0.4900 -1.3394  1.4026
   69POPC   H8S 9174   3.325   5.959   4.750 -0.7920  0.2462 -0.1416
   69POPC   C29 9175   3.477   6.104   4.698 -0.3179  0.2111  0.0171
   69POPC   H91 9176   3.520   6.203   4.719 -0.5327  0.4158 -0.4956
   69POPC  C210 9177   3.490   6.059   4.572  0.1487 -0.2151  0.2149
   69POPC  H101 9178   3.559   6.119   4.510 -1.0179  2.9111  1.7994
   69POPC  C211 9179   3.457   5.926   4.512  0.3252 -0.2322  0.1538
   69POPC  H11R 9180   3.349   5.916   4.487  0.4450  1.1025 -0.9302
   69POPC  H11S 9181   3.495   5.842   4.574  1.3881  1.4235  1.7881
   69POPC  C212 9182   3.528   5.916   4.377  0.5856  0.1508  0.2626
   69POPC  H12R 9183   3.531   5.808   4.351  0.7856  0.4914 -1.1967
   69POPC  H12S 9184   3.629   5.960   4.393  0.5425  0.4966 -0.3991
   69POPC  C213 9185   3.473   5.997   4.259  0.0793 -0.5611  0.0063
   69POPC  H13R 9186   3.521   6.097   4.251  0.0058 -0.3520  1.8526
   69POPC  H13S 9187   3.365   6.021   4.272 -0.2136 -0.5679 -2.2495
   69POPC  C214 9188   3.482   5.923   4.126  1.0225 -0.3160 -0.0718
   69POPC  H14R 9189   3.405   5.842   4.128  0.7406 -0.0197  2.1354
   69POPC  H14S 9190   3.578   5.869   4.112  0.8071 -0.8949  0.6408
   69POPC  C215 9191   3.443   6.018   4.012 -0.4819 -0.3432  0.4078
   69POPC  H15R 9192   3.517   6.101   4.015 -1.1362  0.2936 -0.7251
   69POPC  H15S 9193   3.349   6.075   4.029 -0.2115 -0.2745  1.7404
   69POPC  C216 9194   3.435   5.943   3.879  0.0677  0.1868  0.0754
   69POPC  H16R 9195   3.359   5.866   3.905 -0.0837 -0.5377 -2.4012
   69POPC  H16S 9196   3.527   5.883   3.865 -0.5739 -0.6142 -0.7561
   69POPC  C217 9197   3.394   6.021   3.753  0.0020  0.3602  0.2036
   69POPC  H17R 9198   3.298   6.071   3.780 -1.4232 -1.0262 -2.1062
   69POPC  H17S 9199   3.371   5.943   3.677 -3.3744  0.7916  0.6707
   69POPC  C218 9200   3.485   6.125   3.689  0.0508  0.2471  0.0883
   69POPC  H18R 9201   3.593   6.097   3.697  0.3170  1.2363  0.0029
   69POPC  H18S 9202   3.475   6.228   3.730  0.8926  2.0161 -3.9631
   69POPC  H18T 9203   3.462   6.135   3.581 -1.8130 -0.5584  0.3981
   69POPC   C33 9204   2.980   5.967   5.208  0.4716 -0.0386 -0.6940
   69POPC   H3X 9205   2.907   6.047   5.188  1.4595  0.7607 -1.1342
   69POPC   H3Y 9206   2.966   5.918   5.307  3.4375  0.4833  0.0332
   69POPC   C34 9207   2.987   5.855   5.104 -0.3515  0.0743 -0.8707
   69POPC   H4X 9208   2.886   5.810   5.093 -0.8940  1.3227 -1.0377
   69POPC   H4Y 9209   3.052   5.771   5.136  0.8951  0.9706 -1.0194
   69POPC   C35 9210   3.041   5.889   4.965 -0.2852  0.0076 -0.8611
   69POPC   H5X 9211   3.078   5.801   4.910 -0.5345 -0.0306 -0.9682
   69POPC   H5Y 9212   3.138   5.943   4.972  0.2012 -1.1234  1.7822
   69POPC   C36 9213   2.948   5.977   4.881 -0.2120  0.6172 -0.3081
   69POPC   H6X 9214   2.922   6.069   4.938  0.6174  2.3256 -2.6398
   69POPC   H6Y 9215   2.855   5.922   4.856 -0.3959  1.1796 -0.8615
   69POPC   C37 9216   3.014   6.022   4.751  0.2632 -0.0065 -0.2858
   69POPC   H7X 9217   3.061   5.939   4.694 -0.8960  0.0630 -1.3616
   69POPC   H7Y 9218   3.093   6.089   4.790 -0.3171  0.3102  0.3586
   69POPC   C38 9219   2.919   6.070   4.641 -0.2671 -0.1400  0.1085
   69POPC   H8X 9220   2.825   6.119   4.674  0.5916  1.4613  0.2470
   69POPC   H8Y 9221   2.882   5.979   4.589 -1.1493 -0.3467  1.0973
   69POPC   C39 9222   2.997   6.162   4.546 -0.3307 -0.6980 -0.4865
   69POPC   H9X 9223   3.046   6.237   4.611  1.9792 -3.5818  1.1966
   69POPC   H9Y 9224   2.928   6.226   4.485 -0.6622  0.1597  0.7737
   69POPC  C310 9225   3.107   6.098   4.461  0.5704  0.7371 -0.4164
   69POPC  H10X 9226   3.073   5.994   4.444  0.6314  0.6380  0.0787
   69POPC  H10Y 9227   3.192   6.104   4.531  0.6733 -0.5837 -0.4225
   69POPC  C311 9228   3.129   6.184   4.336 -0.3907  1.6719  0.0471
   69POPC  H11X 9229   3.238   6.181   4.318 -0.4436 -3.3734 -0.1125
   69POPC  H11Y 9230   3.112   6.288   4.370 -1.0341  1.1282  1.4154
   69POPC  C312 9231   3.043   6.161   4.211 -0.0731  0.0919  0.1047
   69POPC  H12X 9232   2.937   6.191   4.230 -0.4775 -2.0375  1.3593
   69POPC  H12Y 9233   3.042   6.054   4.182 -3.6464  0.3193 -0.8343
   69POPC  C313 9234   3.095   6.239   4.090  0.4002 -0.1803  0.1327
   69POPC  H13X 9235   3.197   6.212   4.055 -0.6701 -1.8365 -1.7649
   69POPC  H13Y 9236   3.092   6.348   4.112 -4.5136 -0.4599  1.3174
   69POPC  C314 9237   3.002   6.234   3.969  0.4753 -0.5527  0.0879
   69POPC  H14X 9238   2.898   6.201   3.990 -0.0586  1.4812  0.8405
   69POPC  H14Y 9239   3.047   6.165   3.895  0.2787 -0.1807 -0.3811
   69POPC  C315 9240   2.982   6.370   3.902  0.6348 -0.4397  0.2704
   69POPC  H15X 9241   3.079   6.422   3.887  0.4172 -0.0252  0.2917
   69POPC  H15Y 9242   2.929   6.438   3.972  0.5005 -0.1698 -0.0901
   69POPC  C316 9243   2.907   6.363   3.769  0.3494 -0.3465  0.4273
   69POPC  H16X 9244   2.808   6.318   3.794  1.0475 -1.2653  1.5758
   69POPC  H16Y 9245   2.960   6.299   3.695  0.5072 -0.1945  0.4098
   69POPC  H16Z 9246   2.888   6.462   3.723 -2.0599 -0.1501  1.7324
   70POPC     N 9247   3.056   6.394   5.787  0.1834 -0.3435  0.1718
   70POPC   C12 9248   3.116   6.369   5.651  0.1670  0.4591  0.0192
   70POPC  H12A 9252   3.048   6.413   5.579  2.1835 -0.6491 -2.6573
   70POPC  H12B 9253   3.129   6.265   5.627 -0.7272  0.2864  0.2631
   70POPC   C13 9249   3.128   6.312   5.892 -0.0582 -0.2613  0.4019
   70POPC  H13A 9254   3.130   6.205   5.880  0.7821 -0.3755  1.4618
   70POPC  H13B 9255   3.221   6.361   5.919  1.3274 -2.9342  0.5910
   70POPC  H13C 9256   3.074   6.315   5.986 -1.4165 -0.7038 -0.3634
   70POPC   C14 9250   3.058   6.541   5.821 -0.0046 -0.3795  0.3410
   70POPC  H14A 9257   3.164   6.561   5.829  0.0476  0.0871 -1.4184
   70POPC  H14B 9258   3.004   6.597   5.747 -1.2464 -0.4623  1.1682
   70POPC  H14C 9259   3.007   6.561   5.914 -0.3165  2.2536 -0.3556
   70POPC   C15 9251   2.913   6.345   5.789  0.1897 -0.3687 -0.0194
   70POPC  H15A 9260   2.904   6.247   5.745 -0.2921  0.1828 -1.1946
   70POPC  H15B 9261   2.853   6.414   5.730 -0.0981 -1.2661 -0.7894
   70POPC  H15C 9262   2.874   6.349   5.889  2.1391 -1.4666  0.8017
   70POPC   C11 9263   3.254   6.431   5.628  0.3911 -0.3467 -0.8045
   70POPC  H11A 9264   3.242   6.541   5.616  1.6923 -0.0993  0.1736
   70POPC  H11B 9265   3.297   6.401   5.529  0.5007  0.3042 -0.9524
   70POPC     P 9266   3.449   6.529   5.771  0.2982  0.1371  0.0743
   70POPC   O13 9267   3.558   6.473   5.855  0.2557  0.0213  0.0534
   70POPC   O14 9268   3.366   6.631   5.839 -0.1716 -0.0786 -0.1765
   70POPC   O12 9269   3.350   6.410   5.732 -0.0339  0.5161 -0.2378
   70POPC   O11 9270   3.496   6.569   5.623  0.3434  0.5684  0.2043
   70POPC    C1 9271   3.624   6.532   5.572 -0.0984  0.0569 -0.5471
   70POPC    HA 9272   3.618   6.528   5.461  0.3041 -0.2502 -0.5590
   70POPC    HB 9273   3.660   6.437   5.617  1.4594  1.3058  0.9214
   70POPC    C2 9274   3.732   6.636   5.609  0.1830 -0.5438  0.3188
   70POPC    HS 9275   3.729   6.661   5.717 -0.2993  1.7195 -0.2039
   70POPC   O21 9276   3.717   6.759   5.539 -0.5581 -0.6483  0.2869
   70POPC   C21 9277   3.802   6.857   5.573 -0.8322 -0.3410  0.0922
   70POPC   O22 9278   3.897   6.850   5.649 -0.9052  0.0076  0.2140
   70POPC   C22 9279   3.771   6.981   5.491  0.3157 -0.4238 -0.4659
   70POPC   H2R 9280   3.663   7.005   5.487  0.5389  0.4090 -2.1970
   70POPC   H2S 9281   3.799   6.955   5.386 -0.1096 -0.4579 -0.5715
   70POPC    C3 9282   3.868   6.569   5.580  0.2616 -0.1141 -0.2945
   70POPC    HX 9283   3.855   6.470   5.628  0.0906 -0.9632 -2.0430
   70POPC    HY 9284   3.963   6.611   5.619 -1.1500  1.0743  1.9569
   70POPC   O31 9285   3.867   6.537   5.441  0.1780 -0.0177 -0.3168
   70POPC   C31 9286   3.981   6.475   5.408  0.1498 -0.0326 -0.3857
   70POPC   O32 9287   4.063   6.444   5.493  0.1862  0.6067 -0.1873
   70POPC   C32 9288   3.997   6.464   5.257  0.3605 -0.5195 -0.3310
   70POPC   H2X 9289   3.992   6.563   5.206 -0.7108 -0.5259 -0.2503
   70POPC   H2Y 9290   3.906   6.409   5.225  0.8720 -1.5621 -0.0088
   70POPC   C23 9291   3.857   7.100   5.534 -0.6240 -0.0580  0.4169
   70POPC   H3R 9292   3.964   7.086   5.507 -1.7718 -1.4707 -3.9661
   70POPC   H3S 9293   3.838   7.117   5.642  0.5763 -1.2197  0.8287
   70POPC   C24 9294   3.820   7.230   5.462  0.0538 -0.1123 -0.0414
   70POPC   H4R 9295   3.886   7.311   5.501 -0.1704  0.6247 -1.1769
   70POPC   H4S 9296   3.719   7.255   5.501  0.7687  2.1614  0.4422
   70POPC   C25 9297   3.846   7.239   5.312 -0.2563  0.0861 -0.0838
   70POPC   H5R 9298   3.762   7.184   5.263 -0.7823  0.0565  0.8421
   70POPC   H5S 9299   3.946   7.199   5.285 -1.3434 -1.1537 -2.4306
   70POPC   C26 9300   3.849   7.380   5.254 -0.7746  0.0814 -0.1238
   70POPC   H6R 9301   3.920   7.454   5.298 -1.2069  1.0383 -1.0218
   70POPC   H6S 9302   3.749   7.418   5.283 -0.5388  0.3058  0.4148
   70POPC   C27 9303   3.861   7.386   5.102  0.3906 -0.5109 -0.0594
   70POPC   H7R 9304   3.795   7.317   5.046 -0.1763 -2.8303  3.3324
   70POPC   H7S 9305   3.964   7.346   5.086  0.6091 -0.2065  0.5782
   70POPC   C28 9306   3.850   7.519   5.027  0.1955 -0.4313  0.1142
   70POPC   H8R 9307   3.922   7.582   5.084 -0.2113 -1.3622  1.6829
   70POPC   H8S 9308   3.747   7.561   5.024  0.4884  0.4528  1.4944
   70POPC   C29 9309   3.908   7.493   4.892 -0.1979 -0.0305 -0.1346
   70POPC   H91 9310   4.018   7.506   4.886 -0.2999  1.2889  0.7276
   70POPC  C210 9311   3.840   7.467   4.779 -0.0781 -0.4532 -0.1102
   70POPC  H101 9312   3.890   7.438   4.686 -1.2919 -0.8489 -0.6345
   70POPC  C211 9313   3.690   7.468   4.774 -0.0572  0.2122 -0.6313
   70POPC  H11R 9314   3.646   7.562   4.814 -0.3885 -0.1891 -0.0459
   70POPC  H11S 9315   3.652   7.385   4.837  0.9815  0.5297  0.4413
   70POPC  C212 9316   3.636   7.458   4.631 -0.5445 -0.2144 -0.4188
   70POPC  H12R 9317   3.525   7.456   4.633 -0.5350 -2.2984 -0.3058
   70POPC  H12S 9318   3.665   7.363   4.579  0.4260  1.1705 -2.4863
   70POPC  C213 9319   3.670   7.573   4.536 -0.0361  0.1317  0.1797
   70POPC  H13R 9320   3.646   7.551   4.430 -0.6798  2.0459 -0.0802
   70POPC  H13S 9321   3.778   7.597   4.550  0.4270 -1.3022 -0.8250
   70POPC  C214 9322   3.602   7.708   4.560 -0.0255  0.1930 -0.1377
   70POPC  H14R 9323   3.666   7.785   4.514  0.3588 -1.0265 -1.7000
   70POPC  H14S 9324   3.583   7.732   4.667  0.3759 -0.6595  0.1284
   70POPC  C215 9325   3.468   7.707   4.486 -0.2591  0.6520  0.2759
   70POPC  H15R 9326   3.393   7.656   4.549  0.6218  0.4709  1.1932
   70POPC  H15S 9327   3.477   7.655   4.388 -2.8745 -0.3058  0.5122
   70POPC  C216 9328   3.412   7.841   4.437 -0.6594  0.3932  0.0273
   70POPC  H16R 9329   3.490   7.893   4.377  0.4870 -2.9374 -1.5110
   70POPC  H16S 9330   3.384   7.906   4.523 -0.8474  0.0886  0.1995
   70POPC  C217 9331   3.297   7.844   4.336  0.0419 -0.0431 -0.7838
   70POPC  H17R 9332   3.220   7.773   4.372 -1.7667  1.3043 -1.9457
   70POPC  H17S 9333   3.344   7.798   4.246  1.7481  0.2026 -0.0517
   70POPC  C218 9334   3.242   0.016   4.290 -0.4698 -0.1101 -0.4835
   70POPC  H18R 9335   3.214   0.080   4.377  1.9715 -2.2887  1.9571
   70POPC  H18S 9336   3.164   0.003   4.211 -1.1313 -0.2003  0.1652
   70POPC  H18T 9337   3.320   0.083   4.247  0.8416 -0.9858  0.5037
   70POPC   C33 9338   4.128   6.395   5.219  0.9397  0.4113 -0.0511
   70POPC   H3X 9339   4.126   6.292   5.260 -0.8800 -0.1481 -1.4779
   70POPC   H3Y 9340   4.215   6.442   5.270  0.3522  0.5379  0.8553
   70POPC   C34 9341   4.150   6.381   5.068  0.3771  0.2879 -0.1247
   70POPC   H4X 9342   4.132   6.482   5.025 -0.6829  0.6728  1.1869
   70POPC   H4Y 9343   4.076   6.311   5.025  0.8294 -0.0058 -0.4235
   70POPC   C35 9344   4.292   6.334   5.037  0.2245 -0.2531 -0.0075
   70POPC   H5X 9345   4.300   6.228   5.069 -0.4330 -0.4144 -0.3715
   70POPC   H5Y 9346   4.374   6.392   5.086 -0.9051  2.2296 -0.9610
   70POPC   C36 9347   4.321   6.330   4.887 -1.0874  0.0494 -0.2747
   70POPC   H6X 9348   4.432   6.333   4.892 -0.9284 -0.0717 -2.9788
   70POPC   H6Y 9349   4.278   6.420   4.839 -3.3509 -0.7790  0.1282
   70POPC   C37 9350   4.287   6.198   4.818  0.2021 -0.2962 -0.2726
   70POPC   H7X 9351   4.183   6.209   4.781  1.6977  2.5212 -3.9652
   70POPC   H7Y 9352   4.304   6.106   4.878 -0.9383  1.4904  2.9436
   70POPC   C38 9353   4.372   6.191   4.692  0.5905 -0.2275 -0.0147
   70POPC   H8X 9354   4.337   6.104   4.632  1.0445 -2.3528  2.7400
   70POPC   H8Y 9355   4.478   6.162   4.710  0.5800  0.8347  1.8088
   70POPC   C39 9356   4.373   6.315   4.601 -0.1443 -0.2758 -0.0886
   70POPC   H9X 9357   4.442   6.395   4.632 -1.1967  1.1651 -1.4049
   70POPC   H9Y 9358   4.279   6.372   4.586  2.1087  3.4265 -0.4938
   70POPC  C310 9359   4.425   6.263   4.467  0.0810  0.1127 -0.1503
   70POPC  H10X 9360   4.357   6.184   4.429  0.4834  0.6672 -2.0643
   70POPC  H10Y 9361   4.529   6.228   4.483  0.3413  1.2870  0.8300
   70POPC  C311 9362   4.415   6.369   4.358 -0.2089  0.0831 -0.1504
   70POPC  H11X 9363   4.487   6.451   4.379  0.7041 -0.7535  0.0212
   70POPC  H11Y 9364   4.305   6.385   4.361 -0.5622 -2.3884  1.5659
   70POPC  C312 9365   4.447   6.317   4.218 -0.1475  0.0872 -0.1383
   70POPC  H12X 9366   4.389   6.222   4.206  0.9842 -0.8556  1.6345
   70POPC  H12Y 9367   4.555   6.291   4.210  0.2013  1.4110  0.2310
   70POPC  C313 9368   4.386   6.401   4.105 -0.7251  0.1869  0.2463
   70POPC  H13X 9369   4.291   6.444   4.142 -1.8518 -0.7970 -1.3967
   70POPC  H13Y 9370   4.374   6.341   4.012 -1.4748  0.2129  0.3271
   70POPC  C314 9371   4.466   6.526   4.069 -0.0954 -0.2659  0.0679
   70POPC  H14X 9372   4.566   6.527   4.119 -1.4457 -0.4648  2.8275
   70POPC  H14Y 9373   4.403   6.607   4.110 -2.9147 -2.6907  0.6802
   70POPC  C315 9374   4.502   6.548   3.922  0.3704 -0.1242  0.2009
   70POPC  H15X 9375   4.413   6.529   3.858  2.0420 -1.8082 -1.6722
   70POPC  H15Y 9376   4.569   6.465   3.891  0.9557  0.5437 -0.3402
   70POPC  C316 9377   4.556   6.690   3.904 -0.1220  0.0630  0.1765
   70POPC  H16X 9378   4.477   6.762   3.932  0.4812  0.7773  0.0760
   70POPC  H16Y 9379   4.579   6.712   3.797 -0.3509 -0.2413  0.0644
   70POPC  H16Z 9380   4.642   6.702   3.973  0.7561 -1.8740 -0.5323
   71POPC     N 9381   2.223   3.061   6.340 -0.0315 -0.0325 -0.0447
   71POPC   C12 9382   2.080   3.026   6.305  0.0102 -0.1616 -0.0879
   71POPC  H12A 9386   2.018   3.039   6.393  0.7927 -0.4002  0.5108
   71POPC  H12B 9387   2.076   2.923   6.275 -0.3902  0.0393 -0.7256
   71POPC   C13 9383   2.275   2.964   6.444  0.1542 -0.1325 -0.2285
   71POPC  H13A 9388   2.377   2.986   6.472 -0.7232  1.8060  1.6702
   71POPC  H13B 9389   2.210   2.956   6.530 -1.2733 -1.7201 -1.4228
   71POPC  H13C 9390   2.283   2.869   6.395 -0.7423 -0.6012  0.5127
   71POPC   C14 9384   2.310   3.040   6.218  0.2809 -0.3578  0.2327
   71POPC  H14A 9391   2.408   3.081   6.239 -0.8180  0.3490  4.5301
   71POPC  H14B 9392   2.312   2.934   6.198 -0.5355  0.0124 -1.8654
   71POPC  H14C 9393   2.259   3.089   6.137 -1.0671  0.7677  1.7117
   71POPC   C15 9385   2.223   3.205   6.385  0.5466 -0.0659  0.0741
   71POPC  H15A 9394   2.177   3.267   6.310 -0.6204 -1.8529 -0.7177
   71POPC  H15B 9395   2.325   3.232   6.406 -0.5315  2.7579  1.9876
   71POPC  H15C 9396   2.166   3.214   6.477 -0.6636  2.9028 -0.8868
   71POPC   C11 9397   2.000   3.107   6.203 -0.2573 -0.5202 -0.1646
   71POPC  H11A 9398   1.976   3.200   6.260 -2.5520 -1.1505 -0.0955
   71POPC  H11B 9399   1.906   3.049   6.198 -0.0386 -0.8892  0.0280
   71POPC     P 9400   2.086   3.281   6.027  0.1726  0.0414  0.1351
   71POPC   O13 9401   2.212   3.324   6.091  0.2478  0.2592 -0.1600
   71POPC   O14 9402   1.963   3.363   6.033  0.2764  0.2135 -0.0936
   71POPC   O12 9403   2.057   3.130   6.074 -0.3127  0.0661 -0.0867
   71POPC   O11 9404   2.110   3.264   5.870 -1.0219  0.1956 -0.0736
   71POPC    C1 9405   2.199   3.356   5.807 -0.4202 -0.6138 -0.4300
   71POPC    HA 9406   2.260   3.300   5.733 -0.0508 -4.1413  2.4061
   71POPC    HB 9407   2.275   3.401   5.875  0.0001  1.3607 -2.1535
   71POPC    C2 9408   2.124   3.466   5.730 -0.0836  0.2881  0.5108
   71POPC    HS 9409   2.073   3.529   5.806  0.4922  0.2719  0.9144
   71POPC   O21 9410   2.024   3.415   5.642  0.1194  0.2311  0.3124
   71POPC   C21 9411   1.900   3.407   5.692 -0.0024 -0.0855 -0.0382
   71POPC   O22 9412   1.863   3.454   5.798 -0.9375 -0.0344 -0.3799
   71POPC   C22 9413   1.808   3.345   5.588 -0.1719 -0.4829  0.3495
   71POPC   H2R 9414   1.709   3.392   5.603 -0.7259 -1.0285 -1.4961
   71POPC   H2S 9415   1.793   3.237   5.608  1.1607 -1.0689 -1.6696
   71POPC    C3 9416   2.216   3.555   5.645 -0.2962  0.0506  0.0305
   71POPC    HX 9417   2.284   3.608   5.715  1.3694  1.0086 -2.2312
   71POPC    HY 9418   2.142   3.624   5.598 -2.1167 -2.4207 -0.8301
   71POPC   O31 9419   2.275   3.477   5.541 -0.0828  0.0395  0.1587
   71POPC   C31 9420   2.408   3.478   5.542 -0.0763 -0.5075 -0.0951
   71POPC   O32 9421   2.476   3.519   5.635 -0.2578  0.4601 -0.3847
   71POPC   C32 9422   2.466   3.447   5.405 -0.0940  0.2428 -0.2689
   71POPC   H2X 9423   2.398   3.490   5.328 -1.7177  0.3960  1.2215
   71POPC   H2Y 9424   2.484   3.339   5.389  3.5543  0.5446  1.2853
   71POPC   C23 9425   1.862   3.348   5.444 -0.2216  0.1752  0.3442
   71POPC   H3R 9426   1.970   3.327   5.433  0.0371  2.3657 -1.7110
   71POPC   H3S 9427   1.854   3.455   5.413 -0.7451  1.4777  4.5323
   71POPC   C24 9428   1.779   3.266   5.346 -0.6196  0.7357  0.2046
   71POPC   H4R 9429   1.673   3.258   5.377 -0.6186 -0.0321  0.0408
   71POPC   H4S 9430   1.811   3.160   5.355  1.3488  1.3321  0.5042
   71POPC   C25 9431   1.777   3.293   5.195 -0.6500  0.3152  0.1297
   71POPC   H5R 9432   1.882   3.291   5.159 -0.7270  1.9557 -0.1949
   71POPC   H5S 9433   1.743   3.396   5.173  1.2319  0.9457  0.0519
   71POPC   C26 9434   1.703   3.180   5.124  0.1867  0.0816 -0.3898
   71POPC   H6R 9435   1.608   3.162   5.179  0.3672 -3.2207 -1.0543
   71POPC   H6S 9436   1.764   3.087   5.129 -0.8681 -0.6229 -0.2703
   71POPC   C27 9437   1.677   3.236   4.984 -0.0691  0.2714 -0.2656
   71POPC   H7R 9438   1.772   3.260   4.933 -0.6307  1.0551 -0.9708
   71POPC   H7S 9439   1.612   3.327   4.984  0.6507  0.7900 -0.7762
   71POPC   C28 9440   1.606   3.141   4.888  0.0770 -0.0225 -0.0834
   71POPC   H8R 9441   1.512   3.100   4.931 -0.3558  1.9820  0.9291
   71POPC   H8S 9442   1.669   3.054   4.860 -0.7727 -0.4261 -0.7952
   71POPC   C29 9443   1.565   3.214   4.763  0.9448  0.3533 -0.1469
   71POPC   H91 9444   1.515   3.309   4.784  0.3427 -0.2428  1.2023
   71POPC  C210 9445   1.564   3.165   4.638  0.8767  0.1813 -0.0794
   71POPC  H101 9446   1.533   3.235   4.559  1.5061  1.1011  0.4823
   71POPC  C211 9447   1.604   3.029   4.587  1.0973 -0.0205  0.6235
   71POPC  H11R 9448   1.513   2.966   4.573  1.0814  0.5143 -2.0042
   71POPC  H11S 9449   1.668   2.976   4.660  0.6255 -1.2294  0.1642
   71POPC  C212 9450   1.676   3.023   4.453 -0.4102 -0.0502 -0.2033
   71POPC  H12R 9451   1.770   3.084   4.452 -1.8399  2.2230 -1.9839
   71POPC  H12S 9452   1.595   3.053   4.383 -1.8493 -2.7142  0.2774
   71POPC  C213 9453   1.716   2.883   4.405  0.3932  0.5057 -1.1867
   71POPC  H13R 9454   1.720   2.883   4.294  0.7493 -0.9991 -1.1761
   71POPC  H13S 9455   1.643   2.804   4.432 -0.2795  1.4833 -0.0899
   71POPC  C214 9456   1.857   2.852   4.454 -0.0920  0.0089 -0.0955
   71POPC  H14R 9457   1.874   2.873   4.562  2.9407 -1.8186 -0.1555
   71POPC  H14S 9458   1.924   2.922   4.400  0.4270  0.5260  1.2035
   71POPC  C215 9459   1.899   2.706   4.439 -0.2666 -0.0691  0.1737
   71POPC  H15R 9460   1.832   2.645   4.504 -1.3614  1.7087  0.7435
   71POPC  H15S 9461   1.999   2.693   4.486 -0.2665  0.0125  0.1951
   71POPC  C216 9462   1.909   2.661   4.293  0.3363 -0.4071  0.3176
   71POPC  H16R 9463   1.820   2.672   4.228  1.8678 -2.1606 -2.1748
   71POPC  H16S 9464   1.920   2.550   4.290 -0.4055 -0.4823  0.1878
   71POPC  C217 9465   2.035   2.707   4.221  0.2403 -0.5600  0.0511
   71POPC  H17R 9466   2.130   2.666   4.261 -0.1063 -0.1574  1.2915
   71POPC  H17S 9467   2.040   2.818   4.232  0.9054 -0.4154 -1.4582
   71POPC  C218 9468   2.015   2.678   4.072 -0.1229 -0.4866  0.0851
   71POPC  H18R 9469   1.918   2.716   4.034  0.4428 -0.4361 -1.3425
   71POPC  H18S 9470   2.010   2.567   4.071  3.4092 -0.7214 -0.1890
   71POPC  H18T 9471   2.101   2.726   4.019  0.2488 -0.9646  0.2566
   71POPC   C33 9472   2.603   3.506   5.372 -0.0886  0.1219 -0.4638
   71POPC   H3X 9473   2.661   3.464   5.457 -0.3362  0.1292 -0.2902
   71POPC   H3Y 9474   2.592   3.614   5.395  0.5771  0.0794  0.0985
   71POPC   C34 9475   2.668   3.480   5.236  0.2573 -0.3247 -0.2162
   71POPC   H4X 9476   2.618   3.549   5.165 -0.2288 -0.1321  0.3090
   71POPC   H4Y 9477   2.638   3.380   5.199 -1.1420  0.8133 -2.2366
   71POPC   C35 9478   2.820   3.499   5.247  0.0984  0.6439  0.4351
   71POPC   H5X 9479   2.863   3.437   5.165 -0.0146  0.0814  0.7945
   71POPC   H5Y 9480   2.863   3.464   5.343 -0.1116  1.0544  0.6812
   71POPC   C36 9481   2.877   3.635   5.207 -0.4023  0.5917 -0.4757
   71POPC   H6X 9482   2.987   3.642   5.221 -0.1975  0.1058 -1.7833
   71POPC   H6Y 9483   2.826   3.708   5.273  0.1136  1.4864 -1.0639
   71POPC   C37 9484   2.829   3.687   5.071 -0.5613 -0.3247 -0.7764
   71POPC   H7X 9485   2.871   3.790   5.068  0.4909 -0.7147  0.0222
   71POPC   H7Y 9486   2.719   3.693   5.058 -0.7460  0.8657  1.0134
   71POPC   C38 9487   2.901   3.616   4.957  0.5837 -0.5391  0.0640
   71POPC   H8X 9488   2.864   3.511   4.958  2.1951 -1.1333 -0.7175
   71POPC   H8Y 9489   3.012   3.610   4.958  0.5441 -1.0993  0.9202
   71POPC   C39 9490   2.875   3.678   4.819  0.0866  0.0442  0.4205
   71POPC   H9X 9491   2.957   3.645   4.752 -0.6002  0.1890 -0.5003
   71POPC   H9Y 9492   2.878   3.788   4.838  3.2539  0.0726 -0.0735
   71POPC  C310 9493   2.740   3.649   4.754  0.4558 -0.4225 -0.1403
   71POPC  H10X 9494   2.651   3.652   4.821 -0.8202  0.6463 -1.8196
   71POPC  H10Y 9495   2.755   3.547   4.713 -0.5809 -0.3853 -0.6393
   71POPC  C311 9496   2.705   3.744   4.638 -0.2272 -0.1831  0.2573
   71POPC  H11X 9497   2.668   3.847   4.658  0.6465  0.4519 -1.3005
   71POPC  H11Y 9498   2.619   3.698   4.585  0.5006  0.0125 -1.0912
   71POPC  C312 9499   2.816   3.767   4.536 -0.3689 -0.1156  0.1173
   71POPC  H12X 9500   2.865   3.669   4.517 -1.5114 -0.3329 -1.8721
   71POPC  H12Y 9501   2.886   3.841   4.581 -1.2190  0.4426  0.5319
   71POPC  C313 9502   2.775   3.826   4.401  0.1848 -0.1969 -0.0900
   71POPC  H13X 9503   2.871   3.876   4.376  0.4752 -0.6527  0.1144
   71POPC  H13Y 9504   2.706   3.913   4.405 -1.6791 -1.5482 -2.0089
   71POPC  C314 9505   2.729   3.726   4.295 -0.6233  0.2051 -0.1274
   71POPC  H14X 9506   2.621   3.717   4.317 -0.4961  0.0993  0.4819
   71POPC  H14Y 9507   2.776   3.626   4.304  0.2170  0.8181  3.1286
   71POPC  C315 9508   2.741   3.770   4.149  0.3523  0.1903 -0.0572
   71POPC  H15X 9509   2.849   3.776   4.125  0.2901  0.2322 -0.3206
   71POPC  H15Y 9510   2.693   3.870   4.145 -0.7398 -0.3497 -0.7695
   71POPC  C316 9511   2.677   3.663   4.061 -0.0371  0.1732  0.2482
   71POPC  H16X 9512   2.579   3.625   4.098  0.3505 -1.1691 -0.0731
   71POPC  H16Y 9513   2.741   3.573   4.076  1.3851  0.6740 -2.5306
   71POPC  H16Z 9514   2.676   3.684   3.953 -0.0360 -0.4981  0.1114
   72POPC     N 9515   6.931   0.324   6.275  0.0040  0.1342  0.2727
   72POPC   C12 9516   7.068   0.313   6.336 -0.0312  0.1766  0.3587
   72POPC  H12A 9520   7.056   0.334   6.441  3.0615  2.1898  0.3724
   72POPC  H12B 9521   7.124   0.396   6.296 -0.4541  0.2619 -0.0617
   72POPC   C13 9517   6.935   0.306   6.125 -0.1728 -0.2273  0.3080
   72POPC  H13A 9522   6.985   0.214   6.100  0.4766  0.5534 -1.3731
   72POPC  H13B 9523   6.831   0.314   6.097 -0.2252  3.1561  1.2040
   72POPC  H13C 9524   6.994   0.386   6.081 -0.4872  1.5693  2.9746
   72POPC   C14 9518   6.846   0.212   6.331  0.0495  0.0906  0.2554
   72POPC  H14A 9525   6.745   0.204   6.293  0.5824 -1.5261 -0.8572
   72POPC  H14B 9526   6.894   0.118   6.311 -1.3320 -0.6698  0.4385
   72POPC  H14C 9527   6.841   0.229   6.438 -0.1034 -0.6635  0.3726
   72POPC   C15 9519   6.873   0.459   6.311 -0.0659  0.1951 -0.0691
   72POPC  H15A 9528   6.940   0.541   6.291 -0.1181  0.4184  0.6747
   72POPC  H15B 9529   6.833   0.464   6.411  0.2316  1.3171 -0.0044
   72POPC  H15C 9530   6.778   0.466   6.260  0.1127  1.1047 -0.2873
   72POPC   C11 9531   7.147   0.182   6.327  0.0005  0.2090  0.1756
   72POPC  H11A 9532   7.094   0.107   6.390 -1.7617 -0.4472 -2.0322
   72POPC  H11B 9533   7.251   0.206   6.358 -0.5609  1.2050  1.3157
   72POPC     P 9534   7.269   0.139   6.111 -0.1830  0.0654 -0.1860
   72POPC   O13 9535   7.384   0.098   6.195 -0.1663  0.2504 -0.1186
   72POPC   O14 9536   7.277   0.273   6.049 -0.4348  0.0108 -0.3361
   72POPC   O12 9537   7.135   0.123   6.197  0.0511  0.1545  0.1949
   72POPC   O11 9538   7.245   0.035   5.992  0.4516  0.0664 -0.3166
   72POPC    C1 9539   7.362   7.928   5.947  0.7444  0.2978  0.0293
   72POPC    HA 9540   7.353   7.823   5.981  1.5285  0.3802  0.5156
   72POPC    HB 9541   7.454   0.014   5.988  1.0665 -0.7742  0.6384
   72POPC    C2 9542   7.369   7.921   5.794 -0.1408  0.0613 -0.0006
   72POPC    HS 9543   7.476   7.926   5.766  0.4111 -1.2438  1.8075
   72POPC   O21 9544   7.287   0.065   5.745 -0.0759  0.3889  0.5144
   72POPC   C21 9545   7.348   0.184   5.738  0.2495  0.1952  0.0283
   72POPC   O22 9546   7.470   0.192   5.746  0.2994 -0.3680 -0.1261
   72POPC   C22 9547   7.254   0.298   5.702 -0.1232 -0.2645 -0.4626
   72POPC   H2R 9548   7.314   0.362   5.633  1.7309 -1.9263 -0.4231
   72POPC   H2S 9549   7.232   0.364   5.788  2.4683  2.5307 -1.8158
   72POPC    C3 9550   7.309   7.786   5.751  0.7494 -0.4109  0.2156
   72POPC    HX 9551   7.199   7.793   5.769  0.4348 -3.7215 -0.1143
   72POPC    HY 9552   7.358   7.707   5.811 -1.2266 -0.3011  2.0657
   72POPC   O31 9553   7.333   7.769   5.611  0.2649 -0.0147  0.0819
   72POPC   C31 9554   7.270   7.668   5.552 -0.4336  0.5232 -0.0982
   72POPC   O32 9555   7.200   7.585   5.609  0.3106 -0.0912 -0.0753
   72POPC   C32 9556   7.299   7.666   5.403  0.4414  0.0815  0.0767
   72POPC   H2X 9557   7.388   7.725   5.374 -1.2696  2.7917  0.1561
   72POPC   H2Y 9558   7.220   7.724   5.350 -1.3588 -1.5149  0.9380
   72POPC   C23 9559   7.116   0.257   5.649 -0.2349 -0.3153 -0.1297
   72POPC   H3R 9560   7.053   0.342   5.616  1.9651  1.1659 -0.6844
   72POPC   H3S 9561   7.059   0.201   5.726 -0.1705  0.7105  0.6923
   72POPC   C24 9562   7.116   0.165   5.527  0.0517 -0.1927 -0.2231
   72POPC   H4R 9563   7.156   0.066   5.559  1.3985  0.5826  0.5323
   72POPC   H4S 9564   7.187   0.205   5.452  1.0269 -1.1664  0.1730
   72POPC   C25 9565   6.974   0.143   5.476 -0.0060 -0.0325 -0.1314
   72POPC   H5R 9566   6.937   0.241   5.439 -0.0047  0.4014  1.0081
   72POPC   H5S 9567   6.903   0.095   5.548 -0.0274 -1.2009 -0.9094
   72POPC   C26 9568   6.959   0.048   5.357 -0.4734 -0.0479 -0.0592
   72POPC   H6R 9569   6.850   0.026   5.347 -0.4080  0.1314 -1.1649
   72POPC   H6S 9570   7.021   7.918   5.364  0.6503  0.7936  2.0627
   72POPC   C27 9571   7.001   0.108   5.223  0.0483  0.1538  0.1954
   72POPC   H7R 9572   7.111   0.112   5.207 -0.2155  1.1006 -1.4150
   72POPC   H7S 9573   6.962   0.211   5.215 -0.8628  0.1497  3.7208
   72POPC   C28 9574   6.941   0.037   5.101 -0.1228  0.3874  0.1441
   72POPC   H8R 9575   6.962   0.095   5.009  2.5056 -1.8451 -0.7441
   72POPC   H8S 9576   6.830   0.032   5.105 -0.0629 -1.2929  0.1535
   72POPC   C29 9577   7.002   7.863   5.084 -0.3419  0.2297  0.2844
   72POPC   H91 9578   6.950   7.778   5.131 -1.8269  1.1143  0.2751
   72POPC  C210 9579   7.111   7.836   5.011 -0.2020 -0.0746  0.6093
   72POPC  H101 9580   7.153   7.734   5.000  0.2812  0.1417  0.4169
   72POPC  C211 9581   7.195   7.935   4.937 -0.4944  0.1473  0.5763
   72POPC  H11R 9582   7.301   7.924   4.969  0.5314  2.3851 -1.7961
   72POPC  H11S 9583   7.161   0.079   4.943  0.3033  0.5559 -0.8488
   72POPC  C212 9584   7.187   7.897   4.789 -0.5787  0.2332  0.5580
   72POPC  H12R 9585   7.087   7.932   4.755  0.4064  3.2077  0.5496
   72POPC  H12S 9586   7.190   7.786   4.782 -0.2534  0.1671  1.7682
   72POPC  C213 9587   7.291   7.961   4.696  0.1652 -0.3447  0.9915
   72POPC  H13R 9588   7.296   0.109   4.702  0.9995 -0.3059  0.3719
   72POPC  H13S 9589   7.268   7.929   4.592  0.5465  1.8594  0.2126
   72POPC  C214 9590   7.435   7.910   4.708  0.4161  0.2098  0.3591
   72POPC  H14R 9591   7.467   7.936   4.811  0.1844 -1.7749  0.9570
   72POPC  H14S 9592   7.507   7.956   4.637  1.1725  0.1547  1.0834
   72POPC  C215 9593   7.444   7.758   4.692 -0.1395  0.2130  0.0013
   72POPC  H15R 9594   7.392   7.720   4.602  0.4646 -4.0422  1.2908
   72POPC  H15S 9595   7.406   7.721   4.790  2.4689  1.7065  1.6189
   72POPC  C216 9596   7.581   7.690   4.684 -0.1000  0.2872  0.0366
   72POPC  H16R 9597   7.572   7.582   4.657 -1.9693  0.0715  1.4113
   72POPC  H16S 9598   7.624   7.700   4.786  0.5227 -1.4214 -0.0491
   72POPC  C217 9599   7.679   7.753   4.585 -0.3974  0.3404 -0.2276
   72POPC  H17R 9600   7.784   7.717   4.593  0.6994  3.5973  0.5680
   72POPC  H17S 9601   7.680   7.863   4.596 -2.3213  0.2655  0.9631
   72POPC  C218 9602   7.651   7.715   4.440  0.5603  0.0653 -0.3411
   72POPC  H18R 9603   7.677   7.606   4.436 -2.2628 -0.6950  1.2568
   72POPC  H18S 9604   7.710   7.774   4.366 -2.4548  0.2614 -2.6896
   72POPC  H18T 9605   7.545   7.738   4.419  1.0101  0.4181 -2.4057
   72POPC   C33 9606   7.297   7.523   5.348 -0.1571 -0.0896  0.5355
   72POPC   H3X 9607   7.226   7.455   5.400 -0.8494  0.4336  0.2702
   72POPC   H3Y 9608   7.399   7.485   5.368 -1.0068 -0.7827  3.9004
   72POPC   C34 9609   7.288   7.526   5.195 -0.1894 -0.3288  0.5324
   72POPC   H4X 9610   7.380   7.579   5.162  0.6073 -1.8070  0.3251
   72POPC   H4Y 9611   7.192   7.571   5.159  0.7093  1.5785  0.4431
   72POPC   C35 9612   7.296   7.394   5.119 -0.1867  0.1342 -0.2809
   72POPC   H5X 9613   7.262   7.415   5.016 -0.1998 -1.2431 -0.5676
   72POPC   H5Y 9614   7.219   7.325   5.159  0.9720 -0.7658  0.4423
   72POPC   C36 9615   7.437   7.337   5.099  0.0846  0.7027  0.0030
   72POPC   H6X 9616   7.471   7.294   5.196  2.6831  3.9861  0.6311
   72POPC   H6Y 9617   7.503   7.426   5.090 -0.8236  1.1338 -3.0850
   72POPC   C37 9618   7.457   7.240   4.982  0.4295  0.5413  0.1964
   72POPC   H7X 9619   7.400   7.268   4.891 -0.0332 -2.4167 -0.4677
   72POPC   H7Y 9620   7.418   7.141   5.013  0.7313  0.4172  0.1851
   72POPC   C38 9621   7.599   7.207   4.934  0.3908 -0.0419  0.4834
   72POPC   H8X 9622   7.642   7.141   5.012 -2.6882 -1.1063  1.3549
   72POPC   H8Y 9623   7.653   7.303   4.928  1.8441 -0.7957  1.3141
   72POPC   C39 9624   7.601   7.137   4.797 -0.3565  0.4463  0.2213
   72POPC   H9X 9625   7.532   7.197   4.734 -1.5895 -0.7739  0.4043
   72POPC   H9Y 9626   7.549   7.040   4.805  1.5670 -0.5579  0.7938
   72POPC  C310 9627   7.745   7.119   4.751 -0.5245 -0.2174 -0.0403
   72POPC  H10X 9628   7.787   7.026   4.797  0.3864  0.4982  0.6080
   72POPC  H10Y 9629   7.804   7.204   4.792 -0.8666 -0.2563  0.5312
   72POPC  C311 9630   7.759   7.134   4.600 -0.3403 -0.1533 -0.0180
   72POPC  H11X 9631   7.678   7.198   4.558 -1.7288 -2.1287 -0.4783
   72POPC  H11Y 9632   7.732   7.034   4.558  0.5487 -0.6778  0.6390
   72POPC  C312 9633   7.895   7.179   4.546 -0.2361 -0.0114  0.3664
   72POPC  H12X 9634   7.911   7.282   4.584  1.0913 -0.1085  0.0766
   72POPC  H12Y 9635   7.878   7.191   4.437 -2.4874 -1.8474  0.4553
   72POPC  C313 9636   0.052   7.086   4.572  0.4327  0.6506 -0.1331
   72POPC  H13X 9637   0.052   7.070   4.682  1.0313  4.8755  0.5882
   72POPC  H13Y 9638   0.150   7.134   4.552  0.9358 -0.5599 -0.6394
   72POPC  C314 9639   0.042   6.954   4.495 -0.5421  0.3506  0.5016
   72POPC  H14X 9640   7.923   6.898   4.547 -0.8891 -0.8755 -1.2704
   72POPC  H14Y 9641   0.130   6.890   4.515 -1.2397 -0.6732  0.3260
   72POPC  C315 9642   0.021   6.980   4.346  0.4269 -0.5126  0.2104
   72POPC  H15X 9643   0.079   7.068   4.314  1.9571 -1.1911  1.0820
   72POPC  H15Y 9644   7.874   7.000   4.335  0.4815 -0.0318  0.1279
   72POPC  C316 9645   0.059   6.858   4.262 -0.1182 -0.4247 -0.1682
   72POPC  H16X 9646   0.090   6.883   4.158 -1.6550  1.5762 -0.1716
   72POPC  H16Y 9647   7.929   6.796   4.264  0.7695 -1.9243 -2.2141
   72POPC  H16Z 9648   0.140   6.803   4.314  1.7515  1.8891 -0.5717
   73POPC     N 9649   1.172   7.409   6.340  0.4109 -0.3408  0.0151
   73POPC   C12 9650   1.174   7.480   6.207  0.1938 -0.4918 -0.0687
   73POPC  H12A 9654   1.265   7.459   6.152 -0.3652 -2.4115 -0.2942
   73POPC  H12B 9655   1.174   7.586   6.227 -3.5662 -0.6635  1.1125
   73POPC   C13 9651   1.311   7.411   6.399  0.0881  0.2004  0.7667
   73POPC  H13A 9656   1.336   7.515   6.385 -0.4013  0.4884  1.9166
   73POPC  H13B 9657   1.309   7.391   6.506 -0.0436  1.4689  1.0019
   73POPC  H13C 9658   1.371   7.338   6.347 -1.8372 -0.0663 -1.1577
   73POPC   C14 9652   1.093   7.493   6.437 -0.0150  0.2474 -0.8400
   73POPC  H14A 9659   1.072   7.438   6.528 -2.2607  0.0827 -1.4198
   73POPC  H14B 9660   1.142   7.583   6.471  1.9230 -0.6745 -1.1282
   73POPC  H14C 9661   0.996   7.511   6.393  1.3372 -0.4047 -4.2167
   73POPC   C15 9653   1.125   7.266   6.331  0.2364 -0.2689 -0.2068
   73POPC  H15A 9662   1.032   7.260   6.276  0.8859  2.2758 -1.6743
   73POPC  H15B 9663   1.127   7.228   6.432 -0.7687  3.4442  1.3215
   73POPC  H15C 9664   1.201   7.209   6.280 -0.2829 -0.4962 -0.7317
   73POPC   C11 9665   1.056   7.457   6.113 -0.2191  0.5270  0.1969
   73POPC  H11A 9666   1.062   7.353   6.077  0.9763  0.5520  0.3148
   73POPC  H11B 9667   1.058   7.525   6.025  1.0556  1.6166  1.0430
   73POPC     P 9668   0.817   7.377   6.148 -0.0046 -0.0084 -0.2555
   73POPC   O13 9669   0.682   7.432   6.174 -0.2532 -0.5966 -0.2922
   73POPC   O14 9670   0.849   7.259   6.231 -0.4285  0.0893  0.0462
   73POPC   O12 9671   0.934   7.480   6.184 -0.0594 -0.2910  0.7436
   73POPC   O11 9672   0.846   7.355   5.992  0.1926 -0.0449 -0.2144
   73POPC    C1 9673   0.804   7.466   5.911 -0.6059 -0.2075 -0.0317
   73POPC    HA 9674   0.883   7.473   5.833 -1.2105 -1.0633 -0.7420
   73POPC    HB 9675   0.800   7.563   5.963  1.2602  1.3011 -2.5790
   73POPC    C2 9676   0.677   7.427   5.834 -0.5820 -0.3131 -0.0185
   73POPC    HS 9677   0.600   7.400   5.910  0.0702 -0.3218  0.6501
   73POPC   O21 9678   0.709   7.317   5.748  0.0743 -0.0629 -0.0944
   73POPC   C21 9679   0.597   7.258   5.707  0.2206 -0.9409  0.7657
   73POPC   O22 9680   0.486   7.297   5.741  0.0566 -0.4679 -0.3143
   73POPC   C22 9681   0.627   7.143   5.612 -0.1874 -0.2431 -0.2046
   73POPC   H2R 9682   0.614   7.050   5.671  1.0428 -0.8720 -0.9093
   73POPC   H2S 9683   0.735   7.127   5.594 -0.0200  0.4352  0.1998
   73POPC    C3 9684   0.627   7.553   5.762  0.2598  0.0272 -0.0097
   73POPC    HX 9685   0.614   7.643   5.827 -2.1897 -0.4166  0.1659
   73POPC    HY 9686   0.523   7.528   5.733 -0.5601  2.3427  0.8043
   73POPC   O31 9687   0.693   7.583   5.639  0.1947 -0.2899 -0.1203
   73POPC   C31 9688   0.804   7.656   5.644 -0.0516  0.0468  0.4539
   73POPC   O32 9689   0.839   7.725   5.739  0.4523  0.4210 -0.0014
   73POPC   C32 9690   0.890   7.614   5.526 -0.3840  0.6164  0.0087
   73POPC   H2X 9691   0.973   7.688   5.534 -1.7712  2.2225 -0.0985
   73POPC   H2Y 9692   0.844   7.634   5.426 -2.8507  0.4014  1.0636
   73POPC   C23 9693   0.537   7.148   5.488  0.1939 -0.1337 -0.4791
   73POPC   H3R 9694   0.527   7.256   5.461  1.9173 -0.0680 -0.8779
   73POPC   H3S 9695   0.435   7.108   5.507 -0.5931  1.4412 -1.2525
   73POPC   C24 9696   0.604   7.085   5.366  0.4825 -0.6028 -0.0754
   73POPC   H4R 9697   0.634   6.982   5.395  1.2722 -0.2187  0.5022
   73POPC   H4S 9698   0.700   7.137   5.345 -0.2953  0.1365 -1.8370
   73POPC   C25 9699   0.528   7.091   5.234  0.8086  0.2582 -0.2256
   73POPC   H5R 9700   0.518   7.197   5.204  0.5604  0.9832  2.2704
   73POPC   H5S 9701   0.424   7.056   5.251  1.8797 -1.9118  2.2785
   73POPC   C26 9702   0.586   7.006   5.121 -0.0982 -0.6961  0.0168
   73POPC   H6R 9703   0.518   7.011   5.033 -1.9344 -3.9259  1.1816
   73POPC   H6S 9704   0.593   6.899   5.149 -3.5240 -0.6083  1.3671
   73POPC   C27 9705   0.728   7.049   5.082 -0.3315  0.0418 -0.0257
   73POPC   H7R 9706   0.792   7.050   5.173 -1.5505  0.7737  0.8426
   73POPC   H7S 9707   0.717   7.152   5.042  0.4574  0.5857  1.1405
   73POPC   C28 9708   0.798   6.952   4.986 -0.4863  0.0447 -0.1404
   73POPC   H8R 9709   0.877   7.021   4.948  0.4080 -0.4562  0.8093
   73POPC   H8S 9710   0.728   6.933   4.902 -0.8892 -1.1586  0.4576
   73POPC   C29 9711   0.856   6.837   5.062 -0.6930  0.1679  0.2042
   73POPC   H91 9712   0.917   6.857   5.152 -0.7086 -0.0553  0.2637
   73POPC  C210 9713   0.821   6.712   5.032 -0.1628  0.0854 -0.0851
   73POPC  H101 9714   0.848   6.630   5.100 -0.6426  0.4266  0.5229
   73POPC  C211 9715   0.722   6.667   4.928  0.0970 -0.3227 -0.1562
   73POPC  H11R 9716   0.662   6.751   4.889 -0.8294 -0.1454  1.6091
   73POPC  H11S 9717   0.656   6.585   4.966  0.2302 -1.1286 -1.6458
   73POPC  C212 9718   0.797   6.612   4.807  0.9476  0.4892 -0.0057
   73POPC  H12R 9719   0.714   6.566   4.749  0.3513  0.8674  0.5449
   73POPC  H12S 9720   0.859   6.521   4.824 -1.0024 -0.5937  1.6318
   73POPC  C213 9721   0.877   6.713   4.725  0.0321  0.6551 -0.7030
   73POPC  H13R 9722   0.962   6.763   4.777 -0.8868  1.9472 -0.4022
   73POPC  H13S 9723   0.805   6.797   4.709 -0.0961  1.3605  2.9251
   73POPC  C214 9724   0.929   6.650   4.596  0.2195 -0.0339 -0.2893
   73POPC  H14R 9725   1.000   6.565   4.608 -0.0790 -0.2868 -0.2943
   73POPC  H14S 9726   0.979   6.727   4.533  1.5180 -1.9553 -1.6404
   73POPC  C215 9727   0.822   6.596   4.501 -0.2454  0.2610  0.0612
   73POPC  H15R 9728   0.734   6.662   4.489  0.2533  0.6131 -1.8825
   73POPC  H15S 9729   0.775   6.505   4.544  0.8627  0.4171  1.6755
   73POPC  C216 9730   0.887   6.564   4.366  0.0459  0.1853  0.2177
   73POPC  H16R 9731   0.940   6.654   4.327 -1.2678  1.4807  1.3622
   73POPC  H16S 9732   0.799   6.556   4.299  0.4321 -0.1781 -0.2533
   73POPC  C217 9733   0.975   6.439   4.354 -0.3489 -0.1030  0.3144
   73POPC  H17R 9734   0.913   6.352   4.384 -1.3741  0.6909  0.5524
   73POPC  H17S 9735   1.058   6.433   4.427  2.0382  2.3837 -2.0624
   73POPC  C218 9736   1.049   6.412   4.223 -0.1343 -0.4057  0.4981
   73POPC  H18R 9737   1.132   6.486   4.215  0.3338 -1.0386 -0.5987
   73POPC  H18S 9738   0.981   6.415   4.135 -0.5401  0.5828  0.8390
   73POPC  H18T 9739   1.112   6.320   4.226 -0.9881 -0.9854  0.6362
   73POPC   C33 9740   0.932   7.467   5.526 -0.2597  0.6518 -0.1523
   73POPC   H3X 9741   0.841   7.404   5.533 -0.6563  1.0084 -1.8870
   73POPC   H3Y 9742   0.987   7.445   5.620 -0.8659 -0.2490 -0.0060
   73POPC   C34 9743   1.016   7.408   5.412  0.1082  0.0263  0.4433
   73POPC   H4X 9744   1.122   7.441   5.415 -0.1066  0.8155 -0.7194
   73POPC   H4Y 9745   0.972   7.429   5.312  3.8582 -0.1279 -1.3095
   73POPC   C35 9746   1.045   7.259   5.433  0.3783 -0.0121 -0.2014
   73POPC   H5X 9747   0.952   7.208   5.466  1.2428 -0.0087  2.3197
   73POPC   H5Y 9748   1.115   7.244   5.518  1.2348  0.2072 -0.8636
   73POPC   C36 9749   1.097   7.172   5.318 -0.0776 -0.7170  0.1267
   73POPC   H6X 9750   1.015   7.145   5.248  2.4218 -0.4625 -2.9974
   73POPC   H6Y 9751   1.137   7.075   5.354 -0.2864 -0.2793  1.5753
   73POPC   C37 9752   1.209   7.239   5.239 -0.2974 -0.1513  0.2965
   73POPC   H7X 9753   1.281   7.282   5.313 -0.3550 -0.4157  0.5054
   73POPC   H7Y 9754   1.175   7.326   5.179 -0.5165 -0.9621 -0.7690
   73POPC   C38 9755   1.274   7.146   5.137  0.0838  0.2068  0.2117
   73POPC   H8X 9756   1.305   7.046   5.175 -0.5349 -0.5041 -1.1126
   73POPC   H8Y 9757   1.362   7.199   5.095 -1.4330  1.9304 -0.8831
   73POPC   C39 9758   1.187   7.103   5.019  0.7183 -0.3703 -0.0499
   73POPC   H9X 9759   1.125   7.192   4.997 -0.1631 -0.5010  1.7944
   73POPC   H9Y 9760   1.112   7.025   5.048 -0.4843  0.0472 -1.9340
   73POPC  C310 9761   1.264   7.060   4.894  0.2348 -0.2595 -0.3879
   73POPC  H10X 9762   1.345   6.987   4.917  0.2716 -0.8184 -2.2170
   73POPC  H10Y 9763   1.307   7.144   4.835 -0.2999 -0.5299 -1.1722
   73POPC  C311 9764   1.165   6.994   4.798 -0.0522  0.4079 -0.5540
   73POPC  H11X 9765   1.097   7.067   4.750  0.1496  1.2075  0.3711
   73POPC  H11Y 9766   1.111   6.915   4.854  2.6495 -1.1865 -0.1242
   73POPC  C312 9767   1.222   6.913   4.681 -0.0391 -0.1597 -0.1548
   73POPC  H12X 9768   1.148   6.909   4.599 -0.9696  0.5311  0.6414
   73POPC  H12Y 9769   1.254   6.811   4.714 -1.5122  0.1005  2.2056
   73POPC  C313 9770   1.342   6.985   4.621 -0.4317  0.4957 -0.1535
   73POPC  H13X 9771   1.418   6.989   4.702 -2.8371 -1.2871  2.2722
   73POPC  H13Y 9772   1.314   7.089   4.595  0.2412  0.6938 -0.1077
   73POPC  C314 9773   1.399   6.911   4.500 -0.2678  0.1478  0.1362
   73POPC  H14X 9774   1.309   6.898   4.436  0.2379 -2.2385 -0.1723
   73POPC  H14Y 9775   1.437   6.810   4.528 -1.4945 -0.7410 -1.3597
   73POPC  C315 9776   1.502   6.984   4.414 -0.0486  0.4008  0.6132
   73POPC  H15X 9777   1.507   6.940   4.312  1.1205  2.0571 -0.0723
   73POPC  H15Y 9778   1.603   6.968   4.457  0.6997  2.3300 -0.3516
   73POPC  C316 9779   1.478   7.135   4.401 -0.2128  0.2850 -0.5204
   73POPC  H16X 9780   1.524   7.178   4.310  1.3807 -1.1293 -0.4213
   73POPC  H16Y 9781   1.509   7.188   4.494 -0.2752 -1.1122  0.3138
   73POPC  H16Z 9782   1.368   7.137   4.390 -0.1119 -1.9074 -2.1987
   74POPC     N 9783   6.598   1.384   6.260 -0.0609 -0.0616  0.0380
   74POPC   C12 9784   6.523   1.397   6.130  0.4363 -0.1959 -0.2663
   74POPC  H12A 9788   6.592   1.443   6.062  0.9472 -0.8511 -0.1927
   74POPC  H12B 9789   6.431   1.451   6.147  1.9019  1.6828  2.0975
   74POPC   C13 9785   6.531   1.274   6.339  0.4265 -0.1969  0.2646
   74POPC  H13A 9790   6.434   1.258   6.297  0.8575 -0.2564 -0.7125
   74POPC  H13B 9791   6.578   1.177   6.329 -1.3830 -1.0410 -0.0709
   74POPC  H13C 9792   6.535   1.301   6.444  0.7997  1.3182 -0.1265
   74POPC   C14 9786   6.746   1.355   6.253 -0.0945 -0.0962 -0.5130
   74POPC  H14A 9793   6.795   1.433   6.196 -1.0606  0.6842 -0.2866
   74POPC  H14B 9794   6.785   1.350   6.354  1.4368  0.3956 -1.0677
   74POPC  H14C 9795   6.767   1.261   6.203  0.1446 -0.0788 -0.4503
   74POPC   C15 9787   6.594   1.512   6.341 -0.1424 -0.2710  0.3666
   74POPC  H15A 9796   6.628   1.500   6.443 -2.4264  1.1357  1.3282
   74POPC  H15B 9797   6.498   1.560   6.345 -0.0935 -0.2252  1.0957
   74POPC  H15C 9798   6.660   1.584   6.294 -2.7935  1.5518 -0.6312
   74POPC   C11 9799   6.483   1.265   6.065  0.0931 -0.2314  0.0081
   74POPC  H11A 9800   6.450   1.299   5.964  3.0826 -1.5576 -1.5039
   74POPC  H11B 9801   6.402   1.223   6.127 -1.6405  3.1879  0.1250
   74POPC     P 9802   6.577   1.028   6.077 -0.0814 -0.2142 -0.2644
   74POPC   O13 9803   6.504   1.011   6.205  0.6954 -0.1631  0.1847
   74POPC   O14 9804   6.707   0.958   6.074 -0.2984 -0.6659  0.6766
   74POPC   O12 9805   6.601   1.184   6.052  0.0721 -0.2285 -0.2061
   74POPC   O11 9806   6.500   0.981   5.944 -0.5693 -0.2494  0.0305
   74POPC    C1 9807   6.534   1.051   5.824  0.4596 -0.6379  0.0931
   74POPC    HA 9808   6.594   1.144   5.837 -0.0757 -0.3210  0.3414
   74POPC    HB 9809   6.439   1.083   5.776 -0.6995 -2.3179  1.2172
   74POPC    C2 9810   6.600   0.961   5.719  0.0840 -0.1433 -0.5746
   74POPC    HS 9811   6.706   0.942   5.747 -0.5448 -0.5139  1.6433
   74POPC   O21 9812   6.589   1.015   5.587 -0.1390  0.3718 -0.3439
   74POPC   C21 9813   6.686   1.103   5.560  0.0010  0.2729 -0.1697
   74POPC   O22 9814   6.772   1.129   5.643 -0.4420  0.3566  0.2659
   74POPC   C22 9815   6.678   1.133   5.411  0.3385  0.1549 -0.2118
   74POPC   H2R 9816   6.574   1.134   5.372 -0.2035  0.2683  1.2080
   74POPC   H2S 9817   6.723   1.045   5.361  2.4427  1.7129 -1.0864
   74POPC    C3 9818   6.533   0.822   5.713 -0.2798  0.0157 -0.2113
   74POPC    HX 9819   6.549   0.777   5.813  0.3284 -1.1222 -0.8178
   74POPC    HY 9820   6.587   0.770   5.631  2.6546 -0.0834  1.7038
   74POPC   O31 9821   6.393   0.824   5.684 -0.4492  0.3249  0.6267
   74POPC   C31 9822   6.328   0.708   5.680  0.0581  0.0918 -1.1739
   74POPC   O32 9823   6.379   0.601   5.708 -0.7167  0.0811  0.2570
   74POPC   C32 9824   6.188   0.741   5.630 -0.5488  0.4316  0.7024
   74POPC   H2X 9825   6.182   0.831   5.564  0.5989 -0.8572 -1.2153
   74POPC   H2Y 9826   6.138   0.775   5.723  1.7748  2.1140  1.3638
   74POPC   C23 9827   6.758   1.255   5.366 -0.2810  0.7880  0.3752
   74POPC   H3R 9828   6.867   1.237   5.383 -0.0403  1.3104 -0.5778
   74POPC   H3S 9829   6.735   1.351   5.418 -1.0347  0.3611  0.8350
   74POPC   C24 9830   6.728   1.276   5.218  0.0933  0.0248  0.1858
   74POPC   H4R 9831   6.618   1.288   5.204  0.1976  1.4636  0.5539
   74POPC   H4S 9832   6.751   1.182   5.164  0.1334  0.6233 -0.8554
   74POPC   C25 9833   6.809   1.395   5.165 -0.4329  0.2317 -0.1576
   74POPC   H5R 9834   6.918   1.379   5.180 -0.9660 -2.4974  1.2557
   74POPC   H5S 9835   6.779   1.479   5.230 -1.9855  0.2452 -0.8643
   74POPC   C26 9836   6.799   1.431   5.017 -0.2224  0.0976 -0.2054
   74POPC   H6R 9837   6.837   1.534   5.006  0.4172  0.1199  2.0601
   74POPC   H6S 9838   6.690   1.419   4.997  0.1806 -3.7083 -0.5507
   74POPC   C27 9839   6.864   1.325   4.927  0.0493 -0.2960  0.4505
   74POPC   H7R 9840   6.851   1.223   4.969  0.2633 -0.6353 -0.3058
   74POPC   H7S 9841   6.974   1.340   4.923 -0.3047  2.2212 -1.3130
   74POPC   C28 9842   6.809   1.339   4.785 -0.1914 -0.3535  0.5375
   74POPC   H8R 9843   6.844   1.439   4.752 -2.2601  0.5712  1.0716
   74POPC   H8S 9844   6.698   1.330   4.786 -0.1693 -0.6279  0.4625
   74POPC   C29 9845   6.876   1.241   4.693  0.1958  0.1837  0.2406
   74POPC   H91 9846   6.981   1.223   4.719  0.1289  1.4022  1.3598
   74POPC  C210 9847   6.825   1.181   4.584 -0.2926  0.1588  0.4800
   74POPC  H101 9848   6.891   1.106   4.538 -0.3947 -0.0443  0.6654
   74POPC  C211 9849   6.689   1.194   4.522 -0.0975 -0.0979 -0.0051
   74POPC  H11R 9850   6.686   1.229   4.417 -0.5744  0.6638  0.2557
   74POPC  H11S 9851   6.628   1.273   4.572 -0.1450  0.6873 -1.3002
   74POPC  C212 9852   6.593   1.076   4.506 -0.3803  0.0416  0.6129
   74POPC  H12R 9853   6.657   1.000   4.456  0.1055  0.8926 -0.0837
   74POPC  H12S 9854   6.518   1.099   4.428 -0.7690  2.0109  1.5432
   74POPC  C213 9855   6.537   1.010   4.632 -0.1528 -0.3567  0.5078
   74POPC  H13R 9856   6.475   1.084   4.689  2.1510  2.0788 -0.0479
   74POPC  H13S 9857   6.612   0.980   4.708 -0.1451  0.7539  0.9524
   74POPC  C214 9858   6.454   0.889   4.590 -0.3696  0.0811 -0.3354
   74POPC  H14R 9859   6.506   0.842   4.504  1.2419  1.8408 -0.3474
   74POPC  H14S 9860   6.355   0.924   4.552 -0.2121  2.6038  1.4566
   74POPC  C215 9861   6.435   0.793   4.708  0.5972  0.2370 -0.0547
   74POPC  H15R 9862   6.393   0.852   4.791 -1.4165  0.1911 -1.0108
   74POPC  H15S 9863   6.536   0.759   4.738  0.3298  0.5357  1.1768
   74POPC  C216 9864   6.348   0.671   4.678  0.4452  0.2625  0.2901
   74POPC  H16R 9865   6.395   0.603   4.604  2.3332  0.1815  1.5231
   74POPC  H16S 9866   6.258   0.718   4.634  0.6813  0.8459  0.4312
   74POPC  C217 9867   6.308   0.591   4.803 -0.0838  0.1214  0.0302
   74POPC  H17R 9868   6.373   0.638   4.880  0.3400  0.0817 -0.2974
   74POPC  H17S 9869   6.334   0.484   4.789  2.6698  0.7551  0.0684
   74POPC  C218 9870   6.166   0.603   4.858 -0.0833  0.0734  0.0415
   74POPC  H18R 9871   6.100   0.539   4.795 -0.1912 -0.0877  0.3175
   74POPC  H18S 9872   6.134   0.709   4.856 -2.3108 -0.5377  1.9483
   74POPC  H18T 9873   6.163   0.550   4.956  0.1909  1.1753  0.6621
   74POPC   C33 9874   6.116   0.618   5.573 -0.0984  0.5262 -0.0842
   74POPC   H3X 9875   6.009   0.643   5.590  0.2056  1.2296  0.8387
   74POPC   H3Y 9876   6.136   0.530   5.637 -0.0002 -0.1230 -1.0029
   74POPC   C34 9877   6.128   0.611   5.421  0.6532  0.7569 -0.0348
   74POPC   H4X 9878   6.234   0.602   5.387  0.1393  2.0467 -2.0720
   74POPC   H4Y 9879   6.102   0.715   5.392  0.0566  1.0780  1.6446
   74POPC   C35 9880   6.041   0.506   5.352  0.6184  0.6096  0.2328
   74POPC   H5X 9881   5.942   0.494   5.402  1.2580  1.2565  1.6883
   74POPC   H5Y 9882   6.105   0.416   5.351  3.4513  2.4839  2.9338
   74POPC   C36 9883   6.004   0.547   5.210  0.2443  0.2555  0.2265
   74POPC   H6X 9884   6.087   0.599   5.157 -1.0736 -0.0876 -2.2416
   74POPC   H6Y 9885   5.938   0.636   5.219 -1.7495 -1.1619 -0.2512
   74POPC   C37 9886   5.945   0.432   5.129  0.1442  0.3557  0.1547
   74POPC   H7X 9887   5.892   0.368   5.203 -1.2960  1.6773  0.2753
   74POPC   H7Y 9888   6.021   0.375   5.071 -1.8679 -2.1784 -0.1088
   74POPC   C38 9889   5.855   0.477   5.014 -0.3948 -0.3245  0.3077
   74POPC   H8X 9890   5.905   0.549   4.945 -1.4464  0.7097  0.6011
   74POPC   H8Y 9891   5.764   0.530   5.049  0.2989  2.2445 -1.6384
   74POPC   C39 9892   5.783   0.373   4.928 -0.2665 -0.4787  0.3847
   74POPC   H9X 9893   5.728   0.298   4.989 -0.0699 -0.4728  0.5685
   74POPC   H9Y 9894   5.857   0.308   4.878  0.9507  1.5248 -0.4889
   74POPC  C310 9895   5.684   0.429   4.825  0.4261  0.0019 -0.0215
   74POPC  H10X 9896   5.747   0.495   4.761  0.4264  1.4503  1.4406
   74POPC  H10Y 9897   5.611   0.494   4.879 -0.4120 -0.8641 -0.1036
   74POPC  C311 9898   5.606   0.331   4.737 -0.1523  0.2130  0.2542
   74POPC  H11X 9899   5.538   0.392   4.674 -0.7034 -0.0142  0.6195
   74POPC  H11Y 9900   5.540   0.285   4.813  0.4709  1.2519  1.4451
   74POPC  C312 9901   5.680   0.231   4.649  0.1170  0.3057  0.3748
   74POPC  H12X 9902   5.615   0.164   4.589  0.7474  3.2706 -3.8403
   74POPC  H12Y 9903   5.744   0.174   4.720  0.9747  1.6365  0.6819
   74POPC  C313 9904   5.769   0.291   4.539 -0.0573  0.3131  0.2379
   74POPC  H13X 9905   5.833   0.213   4.492  0.4163 -1.4740  3.6592
   74POPC  H13Y 9906   5.838   0.370   4.576 -1.1223  1.0159  0.7377
   74POPC  C314 9907   5.692   0.371   4.435  0.1524  0.2980  0.0726
   74POPC  H14X 9908   5.640   0.454   4.488  1.7639  1.1321  0.3515
   74POPC  H14Y 9909   5.610   0.310   4.389 -0.4432  1.9010 -1.0381
   74POPC  C315 9910   5.785   0.413   4.321 -0.0565 -0.7939 -0.5130
   74POPC  H15X 9911   5.821   0.317   4.278  0.4076 -1.1613  0.6739
   74POPC  H15Y 9912   5.877   0.458   4.364 -0.9011 -0.1890  0.6909
   74POPC  C316 9913   5.730   0.501   4.209 -0.0526  0.2053  0.2605
   74POPC  H16X 9914   5.718   0.602   4.252  1.3306 -0.6485  2.7621
   74POPC  H16Y 9915   5.629   0.464   4.181  0.2777 -0.0577 -0.6149
   74POPC  H16Z 9916   5.787   0.505   4.113  1.0732  0.3626  0.9218
   75POPC     N 9917   2.735   5.929   6.126  0.1583  0.1576 -0.3609
   75POPC   C12 9918   2.779   6.032   6.024  0.1742  0.7300  0.2207
   75POPC  H12A 9922   2.864   5.994   5.968 -0.3271 -1.2671  0.7743
   75POPC  H12B 9923   2.822   6.115   6.079  3.7881  1.0327 -2.8197
   75POPC   C13 9919   2.673   5.809   6.059 -0.2286 -0.1660  0.5737
   75POPC  H13A 9924   2.750   5.778   5.990  1.3495  0.5893  1.9579
   75POPC  H13B 9925   2.647   5.726   6.123 -0.6088  0.4190  1.1812
   75POPC  H13C 9926   2.587   5.852   6.012  0.0497 -1.0742 -0.8204
   75POPC   C14 9920   2.855   5.900   6.213 -0.0372 -0.2783 -0.2343
   75POPC  H14A 9927   2.897   5.993   6.250 -1.8940  0.0123  1.2143
   75POPC  H14B 9928   2.833   5.835   6.296  1.7911 -1.2255 -0.4779
   75POPC  H14C 9929   2.934   5.859   6.152 -1.2468 -0.0308 -2.0301
   75POPC   C15 9921   2.630   5.980   6.222 -0.0274 -0.5244 -0.2034
   75POPC  H15A 9930   2.613   5.900   6.293  2.2294 -0.1337  0.8107
   75POPC  H15B 9931   2.540   6.013   6.171  0.7899 -0.1787 -1.4287
   75POPC  H15C 9932   2.669   6.063   6.277 -1.7025 -0.6781  1.2724
   75POPC   C11 9933   2.678   6.071   5.917 -0.3842 -0.2845  0.3749
   75POPC  H11A 9934   2.653   5.984   5.852 -0.7933  0.5445 -0.5892
   75POPC  H11B 9935   2.725   6.156   5.863 -0.1673  0.1122  1.1831
   75POPC     P 9936   2.423   6.125   5.900  0.0019 -0.0988 -0.0477
   75POPC   O13 9937   2.334   6.232   5.952  0.4757  0.3317 -0.1160
   75POPC   O14 9938   2.371   5.987   5.909  0.5664 -0.3288 -0.2983
   75POPC   O12 9939   2.562   6.127   5.980 -0.2175  0.1037  0.3329
   75POPC   O11 9940   2.460   6.164   5.749 -0.4014  0.0906 -0.0966
   75POPC    C1 9941   2.524   6.289   5.721 -0.8990  0.4022  0.1364
   75POPC    HA 9942   2.633   6.280   5.737 -0.8050 -0.1516 -0.7517
   75POPC    HB 9943   2.492   6.367   5.794 -2.1265  0.2023 -0.1683
   75POPC    C2 9944   2.493   6.341   5.579 -0.4648  0.1340 -0.0572
   75POPC    HS 9945   2.387   6.314   5.557  0.1415 -1.1232 -1.4945
   75POPC   O21 9946   2.569   6.274   5.478 -0.0136  0.4241  0.0914
   75POPC   C21 9947   2.498   6.272   5.366 -0.1659  0.3777  0.1887
   75POPC   O22 9948   2.378   6.288   5.357 -0.1615  0.4413  0.2521
   75POPC   C22 9949   2.582   6.248   5.241  0.2975  0.1303  0.5463
   75POPC   H2R 9950   2.569   6.142   5.209 -0.9668  0.0798  1.1776
   75POPC   H2S 9951   2.688   6.273   5.262 -0.6105  2.6733  2.2840
   75POPC    C3 9952   2.512   6.493   5.577 -0.1042  0.0925  0.0988
   75POPC    HX 9953   2.616   6.525   5.602 -0.5098  2.0420 -0.5984
   75POPC    HY 9954   2.446   6.527   5.660 -0.3169  1.1370 -0.4867
   75POPC   O31 9955   2.482   6.548   5.449  0.2783  0.1613  0.0405
   75POPC   C31 9956   2.357   6.591   5.431  0.0715 -0.4115  0.0954
   75POPC   O32 9957   2.279   6.607   5.523 -0.0320 -0.5098  0.0235
   75POPC   C32 9958   2.335   6.627   5.285  0.0512 -0.0041  0.1986
   75POPC   H2X 9959   2.318   6.535   5.226 -0.6015 -0.3726  0.9629
   75POPC   H2Y 9960   2.417   6.694   5.249  0.7651 -1.4434 -0.8744
   75POPC   C23 9961   2.536   6.343   5.131 -0.7529 -0.5099  0.4178
   75POPC   H3R 9962   2.542   6.449   5.164 -0.9838  0.0014 -1.1368
   75POPC   H3S 9963   2.430   6.318   5.111 -0.9506  0.7333 -0.1541
   75POPC   C24 9964   2.630   6.324   5.011 -1.0375 -0.3896  0.1743
   75POPC   H4R 9965   2.603   6.233   4.954  1.3589 -0.4691 -0.8913
   75POPC   H4S 9966   2.729   6.309   5.059 -0.9801  0.3155  0.2761
   75POPC   C25 9967   2.622   6.446   4.919  0.6543  0.0044  0.5391
   75POPC   H5R 9968   2.654   6.534   4.979  0.9500  0.4386 -0.2456
   75POPC   H5S 9969   2.522   6.457   4.872  1.0304  1.1667 -0.0142
   75POPC   C26 9970   2.721   6.445   4.801 -0.0231  0.5140 -0.0348
   75POPC   H6R 9971   2.688   6.522   4.728  1.8342  1.1626 -0.2033
   75POPC   H6S 9972   2.726   6.346   4.751 -0.8990  0.2446  0.3885
   75POPC   C27 9973   2.858   6.499   4.841  0.1020  0.2394 -0.0938
   75POPC   H7R 9974   2.913   6.440   4.917  1.2544  1.1679 -0.1871
   75POPC   H7S 9975   2.845   6.599   4.888  1.0575  0.4916 -0.3498
   75POPC   C28 9976   2.966   6.524   4.736  0.0596  0.4343 -0.0906
   75POPC   H8R 9977   2.926   6.583   4.651  3.4608  0.2366 -1.9368
   75POPC   H8S 9978   2.999   6.425   4.699 -1.8548 -0.4000  0.4254
   75POPC   C29 9979   3.080   6.595   4.803  0.0495 -0.1219  0.5236
   75POPC   H91 9980   3.067   6.697   4.844  4.5576  0.3305  1.1271
   75POPC  C210 9981   3.210   6.561   4.815  0.0723  0.0288  0.7031
   75POPC  H101 9982   3.277   6.628   4.872  0.8318 -1.2982  1.3780
   75POPC  C211 9983   3.278   6.435   4.773  0.1623  0.2388  0.2204
   75POPC  H11R 9984   3.210   6.355   4.735  1.9504 -1.6054  0.7848
   75POPC  H11S 9985   3.336   6.397   4.859 -0.7290  0.7666  1.0630
   75POPC  C212 9986   3.376   6.462   4.658 -0.5938 -0.4571 -0.5971
   75POPC  H12R 9987   3.417   6.360   4.646 -0.3014 -0.4556  0.3679
   75POPC  H12S 9988   3.455   6.535   4.685 -1.1154  0.2552 -0.9836
   75POPC  C213 9989   3.313   6.500   4.524 -0.1160  0.1777 -0.6438
   75POPC  H13R 9990   3.274   6.604   4.537  1.7401  0.7780  0.2515
   75POPC  H13S 9991   3.227   6.435   4.498  0.4847 -0.0309 -2.1419
   75POPC  C214 9992   3.419   6.496   4.414  0.1549 -0.0169 -0.3755
   75POPC  H14R 9993   3.452   6.390   4.416 -0.5864 -0.2637 -0.8881
   75POPC  H14S 9994   3.503   6.563   4.442 -1.6152  2.5366 -0.9817
   75POPC  C215 9995   3.359   6.523   4.276 -0.8441 -0.2786  0.0073
   75POPC  H15R 9996   3.300   6.438   4.235 -3.5212  0.7015  1.6583
   75POPC  H15S 9997   3.291   6.608   4.294  1.1316  1.3022  0.0918
   75POPC  C216 9998   3.470   6.557   4.177 -0.9308 -0.1633 -0.0514
   75POPC  H16R 9999   3.557   6.605   4.228  0.2500 -2.5886  0.2531
   75POPC  H16S10000   3.436   6.630   4.100 -0.5200 -0.3035 -0.3641
   75POPC  C21710001   3.506   6.441   4.084 -0.0108  0.3888 -0.3909
   75POPC  H17R10002   3.410   6.416   4.034 -1.4066  2.9669  0.8980
   75POPC  H17S10003   3.537   6.356   4.148  2.9393  1.5130 -0.2230
   75POPC  C21810004   3.633   6.465   4.002  0.2915  0.0863 -0.0127
   75POPC  H18R10005   3.712   6.479   4.079  0.4781  0.4142 -0.2629
   75POPC  H18S10006   3.628   6.562   3.948 -0.8131 -0.1702 -0.3897
   75POPC  H18T10007   3.657   6.379   3.936 -0.9036  0.2366 -0.6602
   75POPC   C3310008   2.196   6.689   5.269 -0.0019 -0.2834 -0.4142
   75POPC   H3X10009   2.206   6.790   5.314  0.4689 -1.6958  2.7630
   75POPC   H3Y10010   2.116   6.636   5.326 -0.1010 -1.6556 -1.8030
   75POPC   C3410011   2.146   6.705   5.125 -0.5600 -0.9579 -0.2980
   75POPC   H4X10012   2.061   6.777   5.121 -0.1831 -0.5377 -0.7432
   75POPC   H4Y10013   2.114   6.602   5.100 -0.8612 -0.8243 -0.4678
   75POPC   C3510014   2.251   6.755   5.025 -0.5552 -0.4702 -0.0544
   75POPC   H5X10015   2.346   6.697   5.029 -0.1884  0.2261  2.8984
   75POPC   H5Y10016   2.285   6.858   5.048 -0.8816  0.1214 -2.1723
   75POPC   C3610017   2.210   6.761   4.878  0.3871 -0.6058 -0.3207
   75POPC   H6X10018   2.122   6.828   4.882  0.5213 -0.4623  0.2694
   75POPC   H6Y10019   2.181   6.663   4.834  0.1056  0.0156 -1.5490
   75POPC   C3710020   2.322   6.826   4.795  0.3295  0.9957  0.8344
   75POPC   H7X10021   2.381   6.906   4.845 -1.1140  1.5663  1.6491
   75POPC   H7Y10022   2.283   6.875   4.703  0.6456 -0.1336  0.0927
   75POPC   C3810023   2.435   6.737   4.744 -0.2668  0.8572 -0.2494
   75POPC   H8X10024   2.397   6.657   4.676 -1.1785  0.9531  0.1374
   75POPC   H8Y10025   2.486   6.689   4.830 -1.4774 -1.0024 -0.5193
   75POPC   C3910026   2.538   6.800   4.650 -0.0073 -0.0695 -0.5917
   75POPC   H9X10027   2.481   6.860   4.575 -1.9356 -0.1785  0.7424
   75POPC   H9Y10028   2.577   6.717   4.588  2.3628  0.8247 -0.3423
   75POPC  C31010029   2.652   6.865   4.728 -0.0784  0.2351 -0.7424
   75POPC  H10X10030   2.686   6.807   4.816  0.4567  1.7079  0.0331
   75POPC  H10Y10031   2.624   6.966   4.766 -1.1139  0.2955 -1.6407
   75POPC  C31110032   2.785   6.887   4.655  0.2999  0.3066 -0.0326
   75POPC  H11X10033   2.839   6.790   4.647  1.1375  0.8749 -1.3797
   75POPC  H11Y10034   2.833   6.954   4.729 -2.7317  0.4510  1.9197
   75POPC  C31210035   2.757   6.950   4.519 -0.1439  0.5223  0.1579
   75POPC  H12X10036   2.696   7.042   4.534 -0.7473  0.4093 -1.4512
   75POPC  H12Y10037   2.697   6.871   4.470 -1.6461  0.3829  2.1527
   75POPC  C31310038   2.883   6.977   4.437  0.1489 -0.5709  0.2483
   75POPC  H13X10039   2.856   6.981   4.330 -0.1553 -0.4358  0.3312
   75POPC  H13Y10040   2.953   6.891   4.443  1.0810  0.0556 -1.5392
   75POPC  C31410041   2.956   7.106   4.474 -0.4381 -0.1198 -0.1747
   75POPC  H14X10042   3.041   7.073   4.537 -0.1670 -0.2819 -0.6233
   75POPC  H14Y10043   2.896   7.170   4.542 -1.4557  1.9191 -2.8976
   75POPC  C31510044   3.016   7.180   4.354 -0.0106  0.0272  0.1272
   75POPC  H15X10045   3.079   7.259   4.401  0.1055  0.3596 -0.5776
   75POPC  H15Y10046   2.943   7.226   4.284  0.1120  0.5360  0.3268
   75POPC  C31610047   3.106   7.085   4.276  0.0475  0.1480  0.0476
   75POPC  H16X10048   3.043   7.009   4.225 -2.0845  2.1081 -0.3345
   75POPC  H16Y10049   3.170   7.032   4.350  0.0064  0.0512  0.0150
   75POPC  H16Z10050   3.160   7.138   4.195  1.2507  0.0011  0.7476
   76POPC     N10051   7.738   2.704   6.305 -0.3383  0.1527 -0.2080
   76POPC   C1210052   7.714   2.744   6.162  0.5081 -0.6094 -0.5689
   76POPC  H12A10056   7.609   2.721   6.154  0.3980  0.1214 -1.3820
   76POPC  H12B10057   7.761   2.673   6.095 -0.7442  0.1866 -2.3428
   76POPC   C1310053   7.881   2.738   6.342 -0.4054  0.2028  0.0090
   76POPC  H13A10058   7.910   2.837   6.313  1.5962 -0.4767 -0.3906
   76POPC  H13B10059   7.903   2.720   6.446 -0.6240 -2.3486 -0.3540
   76POPC  H13C10060   7.945   2.672   6.286 -0.7366  0.7221 -0.9898
   76POPC   C1410054   7.645   2.776   6.401 -0.0818 -0.6299  0.6349
   76POPC  H14A10061   7.545   2.740   6.384 -0.8991  0.3322  3.2890
   76POPC  H14B10062   7.660   2.777   6.508 -1.1980 -0.7737  0.7934
   76POPC  H14C10063   7.654   2.881   6.378  0.6074 -0.5287  1.3406
   76POPC   C1510055   7.724   2.555   6.319 -0.1893  0.2207  0.7451
   76POPC  H15A10064   7.623   2.517   6.309  0.6471 -1.9563  0.2140
   76POPC  H15B10065   7.758   2.520   6.415 -0.4976 -0.9361  0.4460
   76POPC  H15C10066   7.783   2.510   6.240  0.5071  1.7007  0.4130
   76POPC   C1110067   7.747   2.886   6.114 -0.2165 -0.2665 -0.0654
   76POPC  H11A10068   7.711   2.888   6.009 -0.8586  1.2956  0.1764
   76POPC  H11B10069   7.857   2.897   6.127 -0.1518 -1.4110  0.4592
   76POPC     P10070   7.755   3.111   6.228  0.0709 -0.1203 -0.1392
   76POPC   O1310071   7.866   3.071   6.318  0.5009 -0.1538 -0.6861
   76POPC   O1410072   7.664   3.210   6.291  0.0181  0.0527 -0.4890
   76POPC   O1210073   7.671   2.982   6.188 -0.0395 -0.0358 -0.1808
   76POPC   O1110074   7.814   3.154   6.086 -0.2043  0.0634 -0.1977
   76POPC    C110075   7.875   3.284   6.087 -0.0485 -0.0107  0.0114
   76POPC    HA10076   0.020   3.272   6.112 -0.2479 -1.7156  0.2686
   76POPC    HB10077   7.845   3.359   6.163 -0.8655  0.8916 -1.1840
   76POPC    C210078   7.859   3.346   5.947 -0.3083  0.1594  0.1155
   76POPC    HS10079   7.914   3.442   5.951 -1.7933  1.0597 -0.6438
   76POPC   O2110080   7.718   3.364   5.930 -0.2723  0.1366 -0.2291
   76POPC   C2110081   7.664   3.468   5.993  0.1920 -0.0588  0.5071
   76POPC   O2210082   7.727   3.566   6.030 -0.0647  0.3314 -0.0729
   76POPC   C2210083   7.514   3.446   6.005  0.0991  0.2808 -0.0233
   76POPC   H2R10084   7.486   3.412   6.107  4.5460 -0.7817  0.9672
   76POPC   H2S10085   7.480   3.360   5.943  0.4944 -0.9924  1.4861
   76POPC    C310086   7.916   3.257   5.835 -0.1389  0.4202 -0.0055
   76POPC    HX10087   7.872   3.155   5.841  1.8173 -0.8507 -4.6695
   76POPC    HY10088   0.065   3.259   5.846  0.1963 -2.6795 -1.7001
   76POPC   O3110089   7.905   3.318   5.706  0.0678  0.6073  0.0650
   76POPC   C3110090   7.932   3.234   5.605 -0.8088  0.3792  0.0202
   76POPC   O3210091   7.951   3.115   5.622 -0.3067  0.5024  0.3123
   76POPC   C3210092   7.944   3.311   5.474  0.3852  0.3715  0.1224
   76POPC   H2X10093   0.055   3.394   5.485  1.2022 -0.1355 -1.1841
   76POPC   H2Y10094   7.848   3.365   5.462  0.6895  1.2151  1.3852
   76POPC   C2310095   7.442   3.576   5.967  0.3296  0.2329 -0.6346
   76POPC   H3R10096   7.488   3.663   6.019  0.1313  0.4579 -0.8361
   76POPC   H3S10097   7.342   3.558   6.012 -0.2423 -3.3191 -3.0792
   76POPC   C2410098   7.434   3.586   5.815  0.0193 -0.6629 -0.6791
   76POPC   H4R10099   7.391   3.491   5.775  0.5632 -1.2803  0.2136
   76POPC   H4S10100   7.540   3.589   5.784  1.5231 -1.0240  4.1452
   76POPC   C2510101   7.360   3.710   5.763  0.0261 -0.5168 -0.3402
   76POPC   H5R10102   7.415   3.803   5.785  0.4382 -0.8263 -0.0387
   76POPC   H5S10103   7.271   3.723   5.828  1.1416  3.9875  0.3914
   76POPC   C2610104   7.311   3.706   5.618  0.1373 -0.1034 -0.3894
   76POPC   H6R10105   7.294   3.598   5.594  1.1750 -1.0370  2.7241
   76POPC   H6S10106   7.397   3.723   5.550  1.5624  0.4789  1.5138
   76POPC   C2710107   7.198   3.799   5.574  0.0459  0.1115  0.2983
   76POPC   H7R10108   7.099   3.751   5.594 -0.6965  2.0739  1.4823
   76POPC   H7S10109   7.188   3.814   5.465  2.0434 -0.4203  0.0271
   76POPC   C2810110   7.202   3.943   5.627  0.2760  0.4512 -0.6450
   76POPC   H8R10111   7.286   4.009   5.598  0.0058  1.0385 -0.0814
   76POPC   H8S10112   7.208   3.935   5.737 -1.4290 -2.0833 -0.6763
   76POPC   C2910113   7.071   4.014   5.604  0.0666  0.2621 -0.0514
   76POPC   H9110114   6.984   3.982   5.662 -1.3058 -0.1987 -2.3248
   76POPC  C21010115   7.052   4.117   5.520 -0.4019  0.1420 -0.0902
   76POPC  H10110116   6.949   4.156   5.511 -0.0676  1.0661  0.0381
   76POPC  C21110117   7.155   4.180   5.432  0.0226 -0.2404  0.1348
   76POPC  H11R10118   7.236   4.106   5.411 -2.1133 -2.5330 -0.1908
   76POPC  H11S10119   7.209   4.266   5.477  1.9490 -0.2483 -2.0376
   76POPC  C21210120   7.111   4.233   5.295 -0.0410  0.0874  0.2829
   76POPC  H12R10121   7.196   4.286   5.247 -0.7515  3.8772  2.9666
   76POPC  H12S10122   7.019   4.293   5.312 -1.0905 -1.3872 -0.1755
   76POPC  C21310123   7.070   4.112   5.212  0.3327  0.1146  0.0573
   76POPC  H13R10124   7.001   4.051   5.274 -0.3314 -0.2584 -1.0213
   76POPC  H13S10125   7.164   4.055   5.195 -0.0127  0.0555 -1.7919
   76POPC  C21410126   7.015   4.139   5.071  0.0473  0.6704  0.2734
   76POPC  H14R10127   6.966   4.050   5.027  0.0526  0.7158  0.1782
   76POPC  H14S10128   7.101   4.155   5.002  0.7347 -1.6946  0.5374
   76POPC  C21510129   6.924   4.261   5.058 -0.0958  0.5721  0.3646
   76POPC  H15R10130   6.899   4.273   4.951 -1.5259  1.6474  0.7867
   76POPC  H15S10131   6.984   4.351   5.081 -0.1359  0.3715  1.2876
   76POPC  C21610132   6.801   4.263   5.150 -0.2931  0.0828  0.1107
   76POPC  H16R10133   6.752   4.362   5.139  0.2929  0.0963 -2.8058
   76POPC  H16S10134   6.817   4.237   5.257  0.3260  1.3151  0.3190
   76POPC  C21710135   6.699   4.164   5.092 -0.1011 -0.0651  0.0189
   76POPC  H17R10136   6.733   4.059   5.096 -0.1450 -0.1178 -0.9621
   76POPC  H17S10137   6.679   4.194   4.987 -1.3006  4.0850  1.2918
   76POPC  C21810138   6.561   4.173   5.158 -0.3602 -0.2478 -0.5068
   76POPC  H18R10139   6.475   4.129   5.101 -2.0723  0.5258  1.4445
   76POPC  H18S10140   6.567   4.103   5.243  2.5825  1.5791  0.8276
   76POPC  H18T10141   6.529   4.275   5.189 -1.4032 -0.6311 -0.2739
   76POPC   C3310142   0.014   3.218   5.357  0.5046  0.2476  0.2415
   76POPC   H3X10143   7.909   3.131   5.369  1.5754 -1.0207 -2.3860
   76POPC   H3Y10144   0.118   3.180   5.365  0.0991 -0.9810 -0.2119
   76POPC   C3410145   7.947   3.280   5.220  0.5939 -0.7669 -0.2490
   76POPC   H4X10146   0.068   3.353   5.207  0.2249 -0.3624 -0.5778
   76POPC   H4Y10147   7.849   3.331   5.234  0.4592 -1.2362  0.5503
   76POPC   C3510148   7.943   3.182   5.103 -0.1282 -0.4943 -0.4546
   76POPC   H5X10149   7.866   3.105   5.126 -0.0687 -1.6994 -3.9448
   76POPC   H5Y10150   0.076   3.125   5.098 -0.1240 -0.7076  0.9974
   76POPC   C3610151   7.918   3.245   4.966 -0.0930 -0.0542 -0.2594
   76POPC   H6X10152   0.043   3.306   4.933  0.3419  0.3621  1.5277
   76POPC   H6Y10153   7.831   3.311   4.983 -2.2184 -3.2163  1.7466
   76POPC   C3710154   7.871   3.151   4.855 -0.1755 -0.3382  0.0154
   76POPC   H7X10155   7.778   3.107   4.896  0.0519 -0.1947  0.6853
   76POPC   H7Y10156   7.947   3.070   4.848 -0.4997 -0.6458  0.0049
   76POPC   C3810157   7.857   3.223   4.721  0.7878 -0.4580 -0.1533
   76POPC   H8X10158   7.955   3.269   4.697 -0.2611  1.0104 -1.7766
   76POPC   H8Y10159   7.780   3.303   4.721  0.5548 -0.6794 -0.5478
   76POPC   C3910160   7.819   3.124   4.610 -0.3428  0.0134 -0.1903
   76POPC   H9X10161   7.720   3.079   4.635 -0.7377  0.1553 -1.4665
   76POPC   H9Y10162   7.901   3.049   4.612 -0.5171 -0.1600  1.2366
   76POPC  C31010163   7.806   3.192   4.474 -0.0309  0.1299 -0.1610
   76POPC  H10X10164   7.882   3.273   4.476  0.3960 -0.2983  1.0379
   76POPC  H10Y10165   7.707   3.241   4.471  0.6946  1.9391  3.2202
   76POPC  C31110166   7.817   3.100   4.352  0.3905  0.0742 -0.0834
   76POPC  H11X10167   7.734   3.031   4.324  1.3795 -1.0282 -0.3384
   76POPC  H11Y10168   7.904   3.038   4.380  0.8243  0.3280 -0.8663
   76POPC  C31210169   7.860   3.172   4.224  0.1735  0.2076 -0.0829
   76POPC  H12X10170   7.945   3.237   4.256  1.3128 -0.6649 -1.2650
   76POPC  H12Y10171   7.779   3.243   4.195 -0.6738 -1.2512 -1.3280
   76POPC  C31310172   7.910   3.091   4.105  0.3492 -0.1617  0.2433
   76POPC  H13X10173   7.834   3.016   4.075 -0.6335  1.4081 -1.2814
   76POPC  H13Y10174   0.048   3.044   4.118  0.6270  0.4471  0.6106
   76POPC  C31410175   7.925   3.166   3.972  0.1444 -0.5778 -0.0157
   76POPC  H14X10176   0.014   3.262   3.989 -1.1992  0.8800 -3.5522
   76POPC  H14Y10177   7.823   3.193   3.937  0.2560  2.7415  2.0386
   76POPC  C31510178   0.038   3.083   3.868  0.5209 -0.1848 -0.0900
   76POPC  H15X10179   7.935   2.993   3.853  0.3996 -0.2215  0.4647
   76POPC  H15Y10180   0.138   3.055   3.908  1.2904  0.8968 -1.2384
   76POPC  C31610181   0.065   3.145   3.731 -0.8587  0.2483 -0.1791
   76POPC  H16X10182   7.943   3.180   3.668  1.6914  0.3960 -3.7302
   76POPC  H16Y10183   0.134   3.076   3.677 -0.1731  2.6964 -2.5331
   76POPC  H16Z10184   0.128   3.227   3.770 -0.0901 -1.3890  2.1917
   77POPC     N10185   5.891   5.847   6.263  0.0824 -0.0495 -0.1214
   77POPC   C1210186   5.889   5.878   6.115  0.0929 -0.2776 -0.1701
   77POPC  H12A10190   5.993   5.876   6.085  1.3094 -0.1811  3.7931
   77POPC  H12B10191   5.852   5.978   6.096  0.6046  0.0301  0.4541
   77POPC   C1310187   5.754   5.855   6.327  0.5431 -0.4540  0.9227
   77POPC  H13A10192   5.687   5.797   6.266  0.1993  2.0647 -1.2306
   77POPC  H13B10193   5.756   5.840   6.434  0.7932 -0.6243  0.8954
   77POPC  H13C10194   5.717   5.955   6.307  0.8940 -0.4487  0.2847
   77POPC   C1410188   5.949   5.709   6.282 -0.3143 -0.1061  0.6586
   77POPC  H14A10195   6.048   5.712   6.240 -0.5935  0.7458  0.0444
   77POPC  H14B10196   5.949   5.686   6.388  0.9487  1.2384  0.9583
   77POPC  H14C10197   5.890   5.634   6.231  0.3752  1.0365 -1.9100
   77POPC   C1510189   5.979   5.944   6.338  0.3841 -0.3215 -0.1214
   77POPC  H15A10198   5.938   6.043   6.346  0.1086 -0.3070 -1.5418
   77POPC  H15B10199   6.079   5.943   6.297 -0.5158 -1.0273 -2.3961
   77POPC  H15C10200   5.983   5.922   6.444  0.3261  0.2163 -0.0085
   77POPC   C1110201   5.821   5.781   6.018  0.0318  0.2811 -0.6906
   77POPC  H11A10202   5.872   5.682   6.024  0.7720  0.6374 -0.9698
   77POPC  H11B10203   5.825   5.819   5.914  1.5280  0.1702 -0.6949
   77POPC     P10204   5.610   5.631   6.057  0.1113  0.2345  0.1727
   77POPC   O1310205   5.531   5.626   6.182 -0.2035 -0.0439 -0.0379
   77POPC   O1410206   5.692   5.511   6.031  0.1201  0.3665 -0.4295
   77POPC   O1210207   5.685   5.773   6.061  0.2356  0.1753 -0.0582
   77POPC   O1110208   5.501   5.653   5.942 -0.0909  0.2082  0.3588
   77POPC    C110209   5.446   5.780   5.906  0.1728  0.1616 -0.2274
   77POPC    HA10210   5.522   5.837   5.848  1.0347 -0.2032  0.5358
   77POPC    HB10211   5.409   5.832   5.997  1.6282 -2.4463  1.9354
   77POPC    C210212   5.320   5.755   5.822 -0.0086  0.0021  0.0893
   77POPC    HS10213   5.244   5.750   5.903 -1.8140  2.6476 -1.3588
   77POPC   O2110214   5.344   5.624   5.769 -0.2433  0.0271 -0.0813
   77POPC   C2110215   5.249   5.533   5.792  0.2441 -0.4643 -0.0155
   77POPC   O2210216   5.138   5.543   5.840  0.1350 -0.4353 -0.2754
   77POPC   C2210217   5.290   5.401   5.730 -0.0214 -0.0372 -1.1023
   77POPC   H2R10218   5.385   5.356   5.766  0.3872 -1.4926 -3.8236
   77POPC   H2S10219   5.299   5.426   5.622 -0.1588 -0.5029 -1.2232
   77POPC    C310220   5.290   5.861   5.714  0.3146 -0.2289 -0.2300
   77POPC    HX10221   5.275   5.961   5.760  1.5492  0.5322 -1.4621
   77POPC    HY10222   5.193   5.831   5.669 -0.6937 -1.6754  2.7326
   77POPC   O3110223   5.398   5.870   5.622  0.2152 -0.3907 -0.3617
   77POPC   C3110224   5.460   5.988   5.618  0.1127 -0.2907  0.9097
   77POPC   O3210225   5.436   6.087   5.685 -0.0442  0.1536  0.2038
   77POPC   C3210226   5.559   5.988   5.502 -0.3548  0.0516  0.5092
   77POPC   H2X10227   5.517   5.918   5.428  0.8746  0.1751 -0.3078
   77POPC   H2Y10228   5.661   5.954   5.529 -0.1924 -0.5781 -0.8613
   77POPC   C2310229   5.188   5.288   5.750 -0.0275  0.1578 -0.0335
   77POPC   H3R10230   5.097   5.310   5.691  0.3044  0.4559 -0.4413
   77POPC   H3S10231   5.177   5.283   5.860  3.3775 -2.3804  0.3002
   77POPC   C2410232   5.242   5.157   5.692 -0.2163  0.2572 -0.4350
   77POPC   H4R10233   5.337   5.117   5.733 -0.5079  0.7345  0.7157
   77POPC   H4S10234   5.254   5.149   5.582  0.4750  0.0438 -0.3508
   77POPC   C2510235   5.135   5.055   5.730  0.2606 -0.0796  0.0087
   77POPC   H5R10236   5.109   5.065   5.838  1.2062 -1.7956  0.4132
   77POPC   H5S10237   5.181   4.956   5.713  0.3263 -0.4469  2.1099
   77POPC   C2610238   5.007   5.055   5.647  0.0517 -0.3512  0.3273
   77POPC   H6R10239   5.030   5.040   5.539  2.1242 -1.7778  0.9522
   77POPC   H6S10240   4.942   5.146   5.647 -1.0928 -1.1054 -2.8839
   77POPC   C2710241   4.917   4.938   5.687 -0.4834 -0.0123  0.1273
   77POPC   H7R10242   4.889   4.939   5.795  1.0307 -0.2224  0.5337
   77POPC   H7S10243   4.977   4.844   5.686 -1.1227 -0.4704  2.0670
   77POPC   C2810244   4.787   4.930   5.606 -0.2030  0.3059 -0.3596
   77POPC   H8R10245   4.832   4.927   5.505  3.7929  0.2526  1.2862
   77POPC   H8S10246   4.733   5.026   5.622 -0.0074  0.0954  1.8219
   77POPC   C2910247   4.710   4.811   5.655 -0.2123  0.0612 -0.9793
   77POPC   H9110248   4.658   4.827   5.750 -0.0049 -0.8807 -0.6953
   77POPC  C21010249   4.691   4.695   5.589 -0.5338 -0.2705 -0.3078
   77POPC  H10110250   4.637   4.616   5.643  2.2966 -1.4495  0.8829
   77POPC  C21110251   4.741   4.673   5.449  0.3912 -0.0616 -0.0153
   77POPC  H11R10252   4.847   4.705   5.451 -0.0256  1.3295  0.4370
   77POPC  H11S10253   4.690   4.744   5.382 -1.5508 -3.2280 -2.0356
   77POPC  C21210254   4.724   4.528   5.403  0.3906  0.0191 -0.2639
   77POPC  H12R10255   4.614   4.513   5.409  0.1292  1.0075 -1.9929
   77POPC  H12S10256   4.786   4.458   5.462 -1.7692 -1.7176  0.0456
   77POPC  C21310257   4.763   4.501   5.257  0.2930  0.1652 -0.3173
   77POPC  H13R10258   4.760   4.391   5.241  0.3385  0.1619 -0.3042
   77POPC  H13S10259   4.866   4.542   5.245  2.1607 -3.1514  3.3187
   77POPC  C21410260   4.665   4.559   5.155 -0.0306  0.1391 -0.0220
   77POPC  H14R10261   4.624   4.653   5.198  2.5049  2.0098 -1.5793
   77POPC  H14S10262   4.581   4.490   5.131 -0.6781  0.3469  1.5786
   77POPC  C21510263   4.735   4.579   5.021 -0.1301  0.2176 -0.0614
   77POPC  H15R10264   4.722   4.491   4.954  0.3271 -1.2426  1.7113
   77POPC  H15S10265   4.843   4.596   5.042 -0.0921  1.5423 -1.2566
   77POPC  C21610266   4.682   4.699   4.942  0.1593  0.4200  0.0505
   77POPC  H16R10267   4.713   4.797   4.985 -1.5967  1.5302 -1.1353
   77POPC  H16S10268   4.571   4.697   4.948  0.0735  0.6204 -1.3878
   77POPC  C21710269   4.726   4.697   4.796 -0.0042 -0.0189  0.0039
   77POPC  H17R10270   4.833   4.728   4.795 -0.5297  1.9261  1.7381
   77POPC  H17S10271   4.664   4.779   4.753 -1.3022 -1.1082 -0.2256
   77POPC  C21810272   4.689   4.579   4.706 -0.6956 -0.0205  0.2903
   77POPC  H18R10273   4.762   4.496   4.720 -0.4042  0.0581 -0.7240
   77POPC  H18S10274   4.699   4.611   4.600  0.2202  1.1781  0.7187
   77POPC  H18T10275   4.588   4.540   4.732  0.0327 -0.6254  2.2819
   77POPC   C3310276   5.570   6.126   5.436 -0.4918 -0.1618  0.0399
   77POPC   H3X10277   5.574   6.209   5.509  2.2629 -2.0711  2.1608
   77POPC   H3Y10278   5.466   6.132   5.397 -0.3478  0.4853 -0.2563
   77POPC   C3410279   5.671   6.134   5.322 -0.0663  0.2553  0.4427
   77POPC   H4X10280   5.642   6.068   5.238 -0.9377  0.6221  0.4536
   77POPC   H4Y10281   5.772   6.114   5.364  1.3771  0.0623 -2.9404
   77POPC   C3510282   5.677   6.270   5.252 -0.4876 -0.3024 -0.6897
   77POPC   H5X10283   5.728   6.343   5.319  1.0849 -1.3098 -0.7665
   77POPC   H5Y10284   5.579   6.308   5.216  0.1547  0.3806 -1.7606
   77POPC   C3610285   5.764   6.269   5.126  0.2514 -0.3762 -0.1867
   77POPC   H6X10286   5.721   6.182   5.072  0.3089 -0.5846  0.1097
   77POPC   H6Y10287   5.870   6.249   5.150  0.3368  0.7372  0.3799
   77POPC   C3710288   5.749   6.389   5.031  0.4196 -0.3206 -0.1433
   77POPC   H7X10289   5.791   6.476   5.086  0.1168 -1.3161  1.7106
   77POPC   H7Y10290   5.643   6.412   5.006  0.0381 -0.8864  0.9092
   77POPC   C3810291   5.829   6.375   4.901  0.4254  0.6924 -0.2512
   77POPC   H8X10292   5.936   6.361   4.924  0.1016 -1.0280  0.2286
   77POPC   H8Y10293   5.817   6.473   4.850 -1.0190 -0.8426 -3.0023
   77POPC   C3910294   5.776   6.260   4.816  0.4825  0.3770  0.1388
   77POPC   H9X10295   5.667   6.280   4.805  0.2053 -1.3104 -0.3625
   77POPC   H9Y10296   5.773   6.158   4.861  0.5557  0.1747 -0.3116
   77POPC  C31010297   5.835   6.252   4.675  0.0556 -0.0969 -0.0172
   77POPC  H10X10298   5.944   6.254   4.699  0.0666  0.3294 -0.0952
   77POPC  H10Y10299   5.803   6.346   4.624 -0.7864 -0.7518 -0.7021
   77POPC  C31110300   5.805   6.126   4.593  0.1151  0.0046 -0.1966
   77POPC  H11X10301   5.698   6.111   4.571  0.0142 -0.7819  0.8136
   77POPC  H11Y10302   5.848   6.037   4.644 -1.8318 -0.6599  0.3349
   77POPC  C31210303   5.869   6.140   4.455  0.1034  0.0823 -0.1943
   77POPC  H12X10304   5.973   6.176   4.466  0.9221 -2.1126 -0.5125
   77POPC  H12Y10305   5.812   6.208   4.387 -1.2475  0.2228  1.0539
   77POPC  C31310306   5.870   6.010   4.374 -0.1130 -0.2731  0.3778
   77POPC  H13X10307   5.765   5.976   4.361  0.1510 -1.7608  1.8125
   77POPC  H13Y10308   5.932   5.930   4.422  2.7032  1.6575  0.0863
   77POPC  C31410309   5.935   6.026   4.237 -0.0717  0.7062  0.5099
   77POPC  H14X10310   5.962   5.926   4.196 -0.4465  0.5939  0.5351
   77POPC  H14Y10311   6.025   6.090   4.252 -1.5390  2.5473  1.6632
   77POPC  C31510312   5.842   6.099   4.140  0.0580 -0.3196 -0.4014
   77POPC  H15X10313   5.894   6.187   4.099  2.3011 -0.5425  1.8452
   77POPC  H15Y10314   5.753   6.140   4.193 -0.7403 -1.1405 -1.0842
   77POPC  C31610315   5.778   6.018   4.027 -1.1645 -0.2363  0.2158
   77POPC  H16X10316   5.737   5.919   4.055 -0.7301 -0.4643  0.0518
   77POPC  H16Y10317   5.849   5.996   3.945  1.8459 -2.2817  3.2368
   77POPC  H16Z10318   5.692   6.077   3.989  0.0871  0.3953 -1.7137
   78POPC     N10319   0.149   0.135   6.314  0.1048  0.2815 -0.4426
   78POPC   C1210320   0.128   0.005   6.240 -0.3846 -0.0538  0.2765
   78POPC  H12A10324   0.138   7.887   6.313  1.9109  0.0528  0.1759
   78POPC  H12B10325   0.214   7.949   6.177  0.3739  1.8805  0.7203
   78POPC   C1310321   0.156   0.250   6.217  0.4867  0.8858  0.2975
   78POPC  H13A10326   0.061   0.266   6.169 -0.5574  0.6878  2.2636
   78POPC  H13B10327   0.189   0.349   6.246  0.1743  1.3833 -1.0130
   78POPC  H13C10328   0.215   0.224   6.130  0.6559 -0.0911  0.6992
   78POPC   C1410322   0.025   0.158   6.398  0.0885  0.2815 -0.4672
   78POPC  H14A10329   0.032   0.253   6.449 -1.8015 -0.4766  1.2469
   78POPC  H14B10330   7.897   0.163   6.338 -0.4630  0.4888  0.3119
   78POPC  H14C10331   0.009   0.090   6.480 -0.8023  2.2831  1.0488
   78POPC   C1510323   0.266   0.122   6.408 -0.4155 -0.5825  0.1006
   78POPC  H15A10332   0.256   0.029   6.462 -2.1507 -3.5206 -5.0273
   78POPC  H15B10333   0.262   0.203   6.480  0.1431 -1.4728  1.1513
   78POPC  H15C10334   0.360   0.131   6.354 -2.0771  2.1279 -2.4852
   78POPC   C1110335   7.955   7.945   6.171 -0.3929  0.0384  0.1671
   78POPC  H11A10336   7.878   7.932   6.249  0.5432 -2.2583  0.7758
   78POPC  H11B10337   0.001   7.844   6.124  3.5582  0.2343  0.2486
   78POPC     P10338   7.795   0.069   5.995  0.5183  0.3052 -0.2226
   78POPC   O1310339   7.767   0.196   5.923 -0.6376 -0.2868 -0.8446
   78POPC   O1410340   7.683   0.014   6.075  0.5097  0.7438  0.0668
   78POPC   O1210341   7.924   0.093   6.086  0.2839  0.2450  0.1243
   78POPC   O1110342   7.842   7.926   5.884 -0.3151  0.5682 -0.8809
   78POPC    C110343   0.004   7.944   5.815  0.2452  0.0952 -0.0844
   78POPC    HA10344   0.047   7.843   5.796 -0.1458 -0.6084  2.5976
   78POPC    HB10345   0.076   0.033   5.882  2.5953  1.1647 -3.2587
   78POPC    C210346   7.953   0.040   5.674 -0.4722  0.3444  0.0659
   78POPC    HS10347   7.944   0.150   5.690  0.0064  0.1059  2.0270
   78POPC   O2110348   7.832   7.959   5.611 -0.2676 -0.6867  0.3691
   78POPC   C2110349   7.745   0.098   5.598  0.3321 -0.1989  0.0946
   78POPC   O2210350   7.751   0.210   5.646 -0.1390 -0.1071 -0.0535
   78POPC   C2210351   7.643   0.041   5.499 -0.0580  0.3185  0.1951
   78POPC   H2R10352   7.569   7.934   5.544  0.3705 -0.0666  0.3872
   78POPC   H2S10353   7.706   7.945   5.428  0.5367 -0.6432  1.4465
   78POPC    C310354   0.120   0.011   5.595 -0.6569 -0.3811 -0.0361
   78POPC    HX10355   0.127   7.862   5.585 -1.8249 -0.8205  2.9498
   78POPC    HY10356   0.214   0.046   5.642 -0.1561 -2.1879  0.3732
   78POPC   O3110357   0.124   0.072   5.466  0.1852  0.1287  0.2286
   78POPC   C3110358   0.223   0.026   5.390 -0.1075  0.0731 -0.1183
   78POPC   O3210359   0.299   7.900   5.424  0.1410  0.1569 -0.3430
   78POPC   C3210360   0.218   0.084   5.249  0.2909 -0.2774 -0.2775
   78POPC   H2X10361   0.175   0.186   5.245 -0.8892 -0.6265  2.4356
   78POPC   H2Y10362   0.160   0.018   5.181  0.3482  0.3043 -0.8962
   78POPC   C2310363   7.566   0.147   5.420  0.4426  0.0932 -0.6015
   78POPC   H3R10364   7.633   0.202   5.351 -0.6267  0.6565 -1.1840
   78POPC   H3S10365   7.507   0.205   5.494  0.7545  0.4182 -0.6092
   78POPC   C2410366   7.478   0.082   5.313 -0.3787 -0.1089  0.1854
   78POPC   H4R10367   7.386   0.050   5.365 -0.3774 -0.1695  0.1514
   78POPC   H4S10368   7.536   7.958   5.274 -0.4091  0.9770 -2.4513
   78POPC   C2510369   7.460   0.156   5.180 -1.0101 -0.1613  0.2445
   78POPC   H5R10370   7.400   0.091   5.112 -1.5415 -2.2380  2.5970
   78POPC   H5S10371   7.555   0.163   5.125 -0.3526 -1.7543  1.1236
   78POPC   C2610372   7.405   0.298   5.193  0.5087  0.4884 -0.4396
   78POPC   H6R10373   7.479   0.361   5.247  0.0652 -0.4953  1.3521
   78POPC   H6S10374   7.313   0.298   5.255  0.8257 -2.5629  0.1013
   78POPC   C2710375   7.377   0.366   5.059 -0.6177 -0.0329 -0.4746
   78POPC   H7R10376   7.338   0.468   5.080 -0.1262 -0.2265  1.5175
   78POPC   H7S10377   7.296   0.310   5.009 -0.4674 -0.9836  0.3336
   78POPC   C2810378   7.491   0.378   4.957 -0.3038 -0.1885 -0.1468
   78POPC   H8R10379   7.525   0.276   4.929 -0.8585  0.0849 -1.9037
   78POPC   H8S10380   7.575   0.432   5.004  0.8230 -2.3652  0.3630
   78POPC   C2910381   7.452   0.448   4.829 -0.2757  0.1466  0.0283
   78POPC   H9110382   7.383   0.531   4.848 -0.6264 -0.3368  0.9086
   78POPC  C21010383   7.475   0.403   4.705  0.1914  0.2568  0.0739
   78POPC  H10110384   7.441   0.470   4.625 -0.8667 -0.5613 -0.1675
   78POPC  C21110385   7.548   0.276   4.672  0.0000  0.0679  0.3733
   78POPC  H11R10386   7.477   0.205   4.624  2.1976 -2.0224  0.1526
   78POPC  H11S10387   7.589   0.217   4.756  0.6737 -1.1715 -0.8114
   78POPC  C21210388   7.669   0.302   4.582  0.0015  0.8586  0.6038
   78POPC  H12R10389   7.709   0.203   4.554 -0.7124  0.8221 -0.2774
   78POPC  H12S10390   7.752   0.356   4.635 -0.3183  0.3069  1.6802
   78POPC  C21310391   7.636   0.366   4.447  0.0570  0.4127  0.3785
   78POPC  H13R10392   7.731   0.386   4.393  0.0139 -0.9458 -0.2041
   78POPC  H13S10393   7.590   0.465   4.469  1.7852  1.3851 -0.2230
   78POPC  C21410394   7.539   0.289   4.359  0.0436  0.3517  0.4464
   78POPC  H14R10395   7.503   0.351   4.274 -1.3881 -0.6593  0.2959
   78POPC  H14S10396   7.444   0.270   4.413 -0.7535  1.6286 -0.4669
   78POPC  C21510397   7.598   0.157   4.308 -0.0335  0.5653 -0.2087
   78POPC  H15R10398   7.639   0.094   4.390  0.4464  1.6134  0.3536
   78POPC  H15S10399   7.682   0.186   4.243  0.5494 -1.2655 -0.2947
   78POPC  C21610400   7.491   0.077   4.233  0.1802  0.3135 -0.2451
   78POPC  H16R10401   7.549   7.956   4.187 -1.5021 -2.6180  2.5580
   78POPC  H16S10402   7.441   0.144   4.160  0.3356  1.0542  0.3185
   78POPC  C21710403   7.379   0.021   4.321  0.0394 -0.5786 -0.9886
   78POPC  H17R10404   7.290   0.087   4.330 -0.1752 -0.8248 -1.2593
   78POPC  H17S10405   7.421   0.016   4.423 -1.6259  1.1661 -0.1932
   78POPC  C21810406   7.323   7.844   4.286 -0.9574 -0.4620 -0.0533
   78POPC  H18R10407   7.407   7.781   4.250  1.6316  3.6645 -1.6327
   78POPC  H18S10408   7.254   7.854   4.200 -0.8466 -0.0283 -0.0958
   78POPC  H18T10409   7.263   7.796   4.366 -0.3147  0.2857  0.9045
   78POPC   C3310410   0.365   0.092   5.209  0.4534 -1.0216  0.1686
   78POPC   H3X10411   0.418   7.957   5.197  0.6017 -0.9125 -0.3998
   78POPC   H3Y10412   0.425   0.144   5.287 -0.5105 -0.6844  0.6970
   78POPC   C3410413   0.390   0.148   5.069 -0.3561 -0.7762  0.1244
   78POPC   H4X10414   0.366   0.256   5.078 -2.7395 -1.2132 -0.5352
   78POPC   H4Y10415   0.327   0.107   4.987 -0.4362 -1.0784  0.3337
   78POPC   C3510416   0.538   0.136   5.034 -0.1655  0.0012  0.6556
   78POPC   H5X10417   0.552   0.026   5.029 -4.5000 -0.5812 -0.4789
   78POPC   H5Y10418   0.598   0.182   5.116 -0.4242  0.1869  0.7425
   78POPC   C3610419   0.591   0.200   4.906 -0.2841 -0.1503  0.5311
   78POPC   H6X10420   0.701   0.206   4.895 -0.2699  0.7965  1.0493
   78POPC   H6Y10421   0.556   0.305   4.889 -1.3407 -0.5029  0.5139
   78POPC   C3710422   0.551   0.119   4.783 -0.3852 -0.3296  0.6821
   78POPC   H7X10423   0.442   0.099   4.787 -0.2627 -1.3861 -0.6880
   78POPC   H7Y10424   0.617   0.031   4.797  2.9684  2.1465  0.8792
   78POPC   C3810425   0.597   0.188   4.654 -0.9420 -0.2470  0.5261
   78POPC   H8X10426   0.706   0.206   4.667 -1.4057  1.9748  1.5939
   78POPC   H8Y10427   0.541   0.283   4.641 -1.1622  0.1229  3.7459
   78POPC   C3910428   0.582   0.095   4.534  0.1484 -0.2620  0.3957
   78POPC   H9X10429   0.475   0.067   4.527  0.1598 -0.5242  1.2354
   78POPC   H9Y10430   0.637   0.001   4.556  1.6665  0.3905 -0.3352
   78POPC  C31010431   0.635   0.156   4.404 -0.2708 -0.1677  0.2689
   78POPC  H10X10432   0.744   0.176   4.401 -0.5361  1.2719 -0.2436
   78POPC  H10Y10433   0.581   0.253   4.402 -2.5550 -1.3925  1.1006
   78POPC  C31110434   0.600   0.077   4.278 -0.0546 -0.0865  0.1573
   78POPC  H11X10435   0.494   0.096   4.249 -0.7748 -0.9079  2.1490
   78POPC  H11Y10436   0.621   7.932   4.297  1.7644  0.3853  1.0348
   78POPC  C31210437   0.699   0.103   4.164 -0.4351  0.1520 -0.1198
   78POPC  H12X10438   0.788   0.051   4.203 -1.4452 -1.1408  0.4935
   78POPC  H12Y10439   0.709   0.214   4.159 -0.3878  0.2550  1.9441
   78POPC  C31310440   0.661   0.030   4.035 -0.2818 -0.0474 -0.0516
   78POPC  H13X10441   0.657   7.885   4.061  0.5009 -0.3084 -0.8002
   78POPC  H13Y10442   0.742   0.051   3.961  1.7727 -0.6346  1.9748
   78POPC  C31410443   0.530   0.075   3.971 -0.1834  0.4690  0.1036
   78POPC  H14X10444   0.543   0.183   3.949  1.4678 -0.1353 -2.1113
   78POPC  H14Y10445   0.448   0.064   4.046  0.0861  0.2393  0.3668
   78POPC  C31510446   0.501   0.006   3.837 -0.1238  0.1560  0.2513
   78POPC  H15X10447   0.395   0.031   3.813 -0.6183 -0.1876  1.9722
   78POPC  H15Y10448   0.511   7.858   3.838 -0.9819  0.0229 -0.4778
   78POPC  C31610449   0.595   0.045   3.724 -0.1878  0.7197  0.3879
   78POPC  H16X10450   0.696   0.019   3.762 -0.9986 -0.2790  1.8730
   78POPC  H16Y10451   0.586   0.153   3.701 -1.9130  0.3638 -0.7586
   78POPC  H16Z10452   0.572   7.942   3.637 -1.2722 -0.0772  1.2290
   79POPC     N10453   7.450   4.666   6.458 -0.3949 -0.0746 -0.3402
   79POPC   C1210454   7.320   4.740   6.477 -0.3197 -0.1387  0.4605
   79POPC  H12A10458   7.336   4.847   6.472  0.8548 -0.3539 -0.7440
   79POPC  H12B10459   7.288   4.714   6.577  2.4467  0.2282  1.4913
   79POPC   C1310455   7.536   4.732   6.563 -0.6554  0.3987 -0.4224
   79POPC  H13A10460   7.486   4.736   6.659 -0.7859  0.4660 -0.4937
   79POPC  H13B10461   7.621   4.668   6.581 -1.8360 -0.9465  0.4874
   79POPC  H13C10462   7.573   4.829   6.533 -1.3839  0.7404 -0.2143
   79POPC   C1410456   7.441   4.518   6.486  0.2308 -0.0129  0.2146
   79POPC  H14A10463   7.538   4.472   6.480 -0.8172 -2.3788  0.7714
   79POPC  H14B10464   7.407   4.502   6.587 -2.8585 -0.7348 -0.8809
   79POPC  H14C10465   7.365   4.475   6.423 -0.2291  0.5190  0.3963
   79POPC   C1510457   7.505   4.682   6.319 -0.0860  0.1774 -0.1901
   79POPC  H15A10466   7.597   4.632   6.293 -0.9145 -1.0794 -0.7446
   79POPC  H15B10467   7.524   4.788   6.304  0.5172 -0.0259 -0.8941
   79POPC  H15C10468   7.430   4.641   6.254 -0.5561  0.7730 -0.0288
   79POPC   C1110469   7.208   4.705   6.379 -0.1180 -0.2356  0.2651
   79POPC  H11A10470   7.222   4.739   6.274  1.3337 -3.1230 -0.5224
   79POPC  H11B10471   7.119   4.766   6.404  1.5323  0.7137  4.0787
   79POPC     P10472   7.066   4.502   6.440  0.1702 -0.2335 -0.1511
   79POPC   O1310473   6.941   4.541   6.371  0.2399  0.0060 -0.1362
   79POPC   O1410474   7.066   4.528   6.586 -0.1739 -0.0018 -0.1917
   79POPC   O1210475   7.190   4.564   6.362  0.3195 -0.2658  0.0616
   79POPC   O1110476   7.093   4.345   6.421  0.0419 -0.3227  0.3641
   79POPC    C110477   7.034   4.263   6.320 -0.3018  0.0862  0.2302
   79POPC    HA10478   6.942   4.312   6.281 -2.5625 -1.9166  2.7872
   79POPC    HB10479   7.004   4.167   6.368  2.0832 -0.4774  0.6339
   79POPC    C210480   7.125   4.219   6.204 -0.3239  0.2005  0.1698
   79POPC    HS10481   7.211   4.157   6.236  0.0166  1.1451  1.1397
   79POPC   O2110482   7.190   4.339   6.161 -0.4456  0.0517 -0.4266
   79POPC   C2110483   7.281   4.321   6.066 -0.8818  0.0815 -0.8552
   79POPC   O2210484   7.323   4.212   6.031 -0.1459 -0.0371  0.3614
   79POPC   C2210485   7.324   4.458   6.015 -0.0888  0.2430  0.2280
   79POPC   H2R10486   7.396   4.496   6.091  1.0980 -1.7786  0.1704
   79POPC   H2S10487   7.246   4.536   6.025  1.8845  2.4081 -0.6169
   79POPC    C310488   7.041   4.153   6.094 -0.1270 -0.6865  0.5433
   79POPC    HX10489   7.002   4.056   6.131  0.7769 -1.5129 -0.6271
   79POPC    HY10490   7.114   4.131   6.013  0.0811 -1.5687  0.9685
   79POPC   O3110491   6.936   4.237   6.045  0.0329 -0.5803  0.3792
   79POPC   C3110492   6.871   4.185   5.940  0.1564  0.0388 -0.0083
   79POPC   O3210493   6.893   4.074   5.894  0.0779  0.0248 -0.0126
   79POPC   C3210494   6.764   4.278   5.887  0.3919  0.6098  0.5099
   79POPC   H2X10495   6.729   4.361   5.952  0.6172  0.6831  0.5385
   79POPC   H2Y10496   6.673   4.218   5.863  1.2871 -1.1108  1.3567
   79POPC   C2310497   7.387   4.438   5.877 -0.2120  0.2120  0.1752
   79POPC   H3R10498   7.307   4.408   5.806 -1.1619  2.4743  0.2395
   79POPC   H3S10499   7.463   4.358   5.889 -0.7667 -0.4357 -0.5863
   79POPC   C2410500   7.443   4.573   5.830 -0.4810  0.1806 -0.2382
   79POPC   H4R10501   7.532   4.598   5.891 -0.8107 -1.4450  0.9577
   79POPC   H4S10502   7.363   4.640   5.867  1.2170  1.8161  0.5440
   79POPC   C2510503   7.469   4.571   5.679  0.2270  0.0299 -0.1147
   79POPC   H5R10504   7.379   4.530   5.630 -1.2190  0.9853  1.6772
   79POPC   H5S10505   7.550   4.497   5.665  2.5021  2.3368  0.3585
   79POPC   C2610506   7.511   4.711   5.633  0.3951  0.1661  0.4457
   79POPC   H6R10507   7.605   4.739   5.685  0.2504  0.4931  0.5302
   79POPC   H6S10508   7.431   4.781   5.665 -0.7618 -0.5215 -0.8638
   79POPC   C2710509   7.523   4.720   5.481 -0.1115 -0.3183  0.3733
   79POPC   H7R10510   7.428   4.704   5.426 -0.7479 -1.3629  1.7361
   79POPC   H7S10511   7.592   4.637   5.458  1.3947  0.4880  1.8582
   79POPC   C2810512   7.586   4.850   5.429 -0.1396 -0.4320  0.0533
   79POPC   H8R10513   7.543   4.943   5.471  0.8543 -0.7326  1.7975
   79POPC   H8S10514   7.557   4.863   5.323  1.6368 -1.0356 -0.5289
   79POPC   C2910515   7.735   4.854   5.448 -0.0652 -0.4522 -0.5083
   79POPC   H9110516   7.761   4.892   5.548  2.3301 -0.7790 -0.9619
   79POPC  C21010517   7.826   4.831   5.353  0.6047  0.3427 -0.0654
   79POPC  H10110518   7.933   4.843   5.378  0.8032  0.1436 -0.7806
   79POPC  C21110519   7.793   4.797   5.211  0.3231 -0.2651  0.1485
   79POPC  H11R10520   7.693   4.747   5.212  0.6522 -0.9026  1.4816
   79POPC  H11S10521   7.878   4.731   5.183  0.0625 -0.2675 -0.6623
   79POPC  C21210522   7.786   4.923   5.124  0.3761 -0.3199  0.0651
   79POPC  H12R10523   7.883   4.977   5.131 -0.1950  0.6886  0.2948
   79POPC  H12S10524   7.710   4.989   5.171  0.9767  0.3192  0.1606
   79POPC  C21310525   7.745   4.902   4.979 -0.1548  0.1703  0.1409
   79POPC  H13R10526   7.657   4.837   4.961 -1.3352  1.5224  0.9612
   79POPC  H13S10527   7.828   4.857   4.920  1.3870  3.0324  0.0425
   79POPC  C21410528   7.717   5.040   4.921  0.2767  0.2480  0.1115
   79POPC  H14R10529   7.805   5.105   4.939 -1.4540  2.6946  0.0595
   79POPC  H14S10530   7.642   5.093   4.984  1.5029  2.3020 -0.1119
   79POPC  C21510531   7.689   5.028   4.771 -0.3064 -0.1928  0.2532
   79POPC  H15R10532   7.583   4.998   4.756 -0.5143  0.2119  0.8669
   79POPC  H15S10533   7.754   4.947   4.732  0.2681  1.1200 -1.6194
   79POPC  C21610534   7.709   5.160   4.695 -0.0442 -0.1947  0.3180
   79POPC  H16R10535   7.815   5.186   4.717  0.9052 -2.6420 -1.1168
   79POPC  H16S10536   7.653   5.243   4.741 -0.9071 -0.0261 -1.0153
   79POPC  C21710537   7.685   5.146   4.544  0.2965 -0.0240  0.2468
   79POPC  H17R10538   7.584   5.110   4.515 -0.1155 -0.7312  2.4281
   79POPC  H17S10539   7.759   5.069   4.510 -0.1801  0.3613 -1.7136
   79POPC  C21810540   7.706   5.281   4.476  0.3009 -0.5594 -0.8174
   79POPC  H18R10541   7.675   5.277   4.369  2.2682  1.2497 -1.4886
   79POPC  H18S10542   7.807   5.325   4.491  0.1679 -0.4886 -0.1170
   79POPC  H18T10543   7.642   5.356   4.526 -1.3716 -0.6441 -2.7894
   79POPC   C3310544   6.799   4.341   5.752  0.0513 -0.5705 -0.1428
   79POPC   H3X10545   6.708   4.388   5.711  1.1245  1.6863 -0.0263
   79POPC   H3Y10546   6.821   4.259   5.680  3.3544  1.1210 -1.2070
   79POPC   C3410547   6.922   4.433   5.763 -0.1970 -0.2117 -0.3756
   79POPC   H4X10548   7.011   4.375   5.795  0.5480  1.6763  1.0311
   79POPC   H4Y10549   6.904   4.509   5.841  3.4885 -0.6663  0.9979
   79POPC   C3510550   6.942   4.488   5.622 -0.2777  0.2345 -0.2126
   79POPC   H5X10551   6.845   4.525   5.582 -1.0117 -0.2047  1.1697
   79POPC   H5Y10552   6.964   4.404   5.553 -0.6750 -1.4506  1.6693
   79POPC   C3610553   7.057   4.589   5.622  0.3133 -0.4342 -0.3355
   79POPC   H6X10554   7.147   4.534   5.656  0.7082  0.8977  0.8057
   79POPC   H6Y10555   7.015   4.679   5.672  0.5453 -1.3289  1.5252
   79POPC   C3710556   7.091   4.611   5.474 -0.1952 -0.3117 -0.4360
   79POPC   H7X10557   7.122   4.510   5.440  0.0443 -0.4099  0.0647
   79POPC   H7Y10558   7.173   4.685   5.470 -0.8034  0.5408  1.9651
   79POPC   C3810559   6.969   4.660   5.396 -0.2895  0.3035  0.1010
   79POPC   H8X10560   6.943   4.754   5.450  1.5560  0.9553 -0.0977
   79POPC   H8Y10561   6.888   4.585   5.397  1.1537 -1.2709  0.8367
   79POPC   C3910562   7.002   4.698   5.252 -0.2361 -0.3475 -0.0596
   79POPC   H9X10563   7.034   4.605   5.201  1.1909 -0.0102  0.1938
   79POPC   H9Y10564   7.087   4.768   5.264 -0.2491 -0.6614  1.9788
   79POPC  C31010565   6.869   4.764   5.212  0.0933  0.5408  0.2852
   79POPC  H10X10566   6.855   4.853   5.276  0.6777  0.7157  0.1718
   79POPC  H10Y10567   6.785   4.697   5.242  0.7638 -0.9366 -1.0562
   79POPC  C31110568   6.868   4.815   5.068 -0.0930 -0.1277  0.0481
   79POPC  H11X10569   6.967   4.857   5.040 -0.5428  1.2122  0.4157
   79POPC  H11Y10570   6.792   4.894   5.049  0.4792 -0.2361 -2.8330
   79POPC  C31210571   6.848   4.695   4.975  0.8879 -0.1395 -0.1539
   79POPC  H12X10572   6.772   4.635   5.030 -1.2485  0.7110 -2.0826
   79POPC  H12Y10573   6.941   4.636   4.969  0.0845 -1.2101 -2.9341
   79POPC  C31310574   6.797   4.736   4.836 -0.0737 -0.1135  0.1997
   79POPC  H13X10575   6.857   4.816   4.788 -1.2933  1.2881  0.9956
   79POPC  H13Y10576   6.698   4.779   4.862  0.2109 -0.2377  1.5441
   79POPC  C31410577   6.789   4.619   4.738 -0.7241  0.4431 -0.4176
   79POPC  H14X10578   6.896   4.591   4.724 -1.2527 -1.3394 -1.0603
   79POPC  H14Y10579   6.770   4.650   4.633  1.3824  0.1275 -0.9198
   79POPC  C31510580   6.704   4.498   4.778  0.5208 -0.1606  0.4558
   79POPC  H15X10581   6.739   4.473   4.880  2.3332  0.0232 -0.1032
   79POPC  H15Y10582   6.727   4.413   4.711 -0.0515 -2.3238  2.9427
   79POPC  C31610583   6.552   4.515   4.779  0.5948  0.5729  0.1962
   79POPC  H16X10584   6.510   4.569   4.867  1.2980 -0.5122  1.2285
   79POPC  H16Y10585   6.504   4.417   4.757  0.6900  0.5660  0.0200
   79POPC  H16Z10586   6.521   4.578   4.693  0.5649 -0.4598 -0.5531
   80POPC     N10587   7.016   2.472   6.554  0.2291 -0.0112  0.1323
   80POPC   C1210588   7.061   2.474   6.410 -0.9194 -0.0908 -0.2346
   80POPC  H12A10592   7.148   2.538   6.402 -1.2409  0.2042 -1.5140
   80POPC  H12B10593   6.981   2.517   6.351 -2.2684 -2.2588 -0.0318
   80POPC   C1310589   6.876   2.417   6.566  0.2253 -0.0662 -0.1550
   80POPC  H13A10594   6.839   2.403   6.666 -0.5170  2.1954 -0.0900
   80POPC  H13B10595   6.816   2.494   6.519 -2.0233 -1.8709 -0.3127
   80POPC  H13C10596   6.861   2.321   6.518  3.0116  0.0163 -1.3047
   80POPC   C1410590   7.107   2.401   6.651 -0.0073 -0.1006  0.2890
   80POPC  H14A10597   7.210   2.431   6.635 -0.0687  0.1216  0.3029
   80POPC  H14B10598   7.072   2.403   6.753  1.0681  0.7139  0.6512
   80POPC  H14C10599   7.118   2.297   6.625  0.9864 -0.6633  2.8396
   80POPC   C1510591   7.017   2.610   6.615 -0.3719  0.3040 -0.5645
   80POPC  H15A10600   7.120   2.629   6.642 -0.4185 -2.1478  1.4379
   80POPC  H15B10601   6.963   2.623   6.707  0.4935  1.7798 -0.2443
   80POPC  H15C10602   6.973   2.684   6.549  0.2992  0.9093 -0.3343
   80POPC   C1110603   7.081   2.336   6.346 -0.5015 -0.3499  0.4551
   80POPC  H11A10604   7.088   2.336   6.235  0.1079 -1.1244  0.4910
   80POPC  H11B10605   7.001   2.266   6.376 -2.2376  1.4264  0.0825
   80POPC     P10606   7.231   2.134   6.349 -0.1581 -0.2893 -0.2365
   80POPC   O1310607   7.140   2.038   6.415 -0.0444 -0.1419  0.1341
   80POPC   O1410608   7.371   2.106   6.387 -0.2449 -0.4959 -0.0685
   80POPC   O1210609   7.206   2.285   6.394  0.0525 -0.1109 -0.7176
   80POPC   O1110610   7.218   2.134   6.189 -0.3109  0.2156 -0.2232
   80POPC    C110611   7.312   2.210   6.113  0.2758 -0.0729  0.2115
   80POPC    HA10612   7.395   2.249   6.177 -0.2765 -0.5955  1.2630
   80POPC    HB10613   7.258   2.294   6.064  1.0970  1.7976  2.4018
   80POPC    C210614   7.390   2.123   6.013  0.1084 -0.5038  0.4554
   80POPC    HS10615   7.445   2.190   5.944 -2.2582 -0.5172 -1.4936
   80POPC   O2110616   7.308   2.054   5.918  0.0615 -0.2219  0.2915
   80POPC   C2110617   7.245   2.140   5.838  0.9757 -0.4861 -0.7213
   80POPC   O2210618   7.268   2.260   5.833 -0.6099 -0.1287  0.1671
   80POPC   C2210619   7.151   2.060   5.751  0.0825  0.3432 -0.5276
   80POPC   H2R10620   7.059   2.121   5.735 -0.1885  0.7784  2.5524
   80POPC   H2S10621   7.109   1.967   5.796 -3.6129  1.4033 -1.5795
   80POPC    C310622   7.492   2.023   6.070  0.0755 -0.6904  0.1842
   80POPC    HX10623   7.426   1.943   6.110 -0.4491 -0.6355 -0.5570
   80POPC    HY10624   7.545   2.060   6.160 -2.3469  1.1139  0.8939
   80POPC   O3110625   7.580   1.966   5.972 -0.2744  0.0053 -0.5379
   80POPC   C3110626   7.545   1.857   5.905 -0.2528 -0.1312 -0.3270
   80POPC   O3210627   7.439   1.798   5.921 -0.1690 -0.2315 -0.1431
   80POPC   C3210628   7.645   1.816   5.798 -0.0451  0.3410 -0.3105
   80POPC   H2X10629   7.711   1.747   5.855 -0.4089  0.5120  0.3208
   80POPC   H2Y10630   7.703   1.905   5.766 -0.5335  0.4172 -0.9792
   80POPC   C2310631   7.226   2.007   5.628  0.3789  0.0048 -0.1999
   80POPC   H3R10632   7.176   1.909   5.618 -3.2220  1.8780 -1.4427
   80POPC   H3S10633   7.332   1.992   5.659  0.5390  1.2125 -0.1098
   80POPC   C2410634   7.202   2.089   5.501  0.3190  0.4036  0.0657
   80POPC   H4R10635   7.236   2.194   5.505 -0.4170  0.6422  0.0878
   80POPC   H4S10636   7.091   2.093   5.497  0.1959 -0.2775  1.9934
   80POPC   C2510637   7.237   2.014   5.372  0.1676  0.1108  0.1957
   80POPC   H5R10638   7.175   1.921   5.372 -0.9739  0.8347  2.0651
   80POPC   H5S10639   7.344   1.987   5.380 -0.5746 -2.9399  0.4529
   80POPC   C2610640   7.192   2.099   5.253 -0.7463 -0.2741  0.2578
   80POPC   H6R10641   7.257   2.188   5.267  0.4424 -1.1092  0.1860
   80POPC   H6S10642   7.085   2.129   5.261 -0.0663  1.7404  2.2553
   80POPC   C2710643   7.228   2.032   5.120  0.1161  0.3051  0.1955
   80POPC   H7R10644   7.330   1.989   5.132  1.5702  3.7092  0.3855
   80POPC   H7S10645   7.233   2.110   5.041 -1.4199 -1.9259 -2.1872
   80POPC   C2810646   7.139   1.912   5.084  0.3157  0.1577  0.1886
   80POPC   H8R10647   7.115   1.848   5.171  1.0072 -0.8223 -0.3364
   80POPC   H8S10648   7.194   1.847   5.013  0.4654  1.0132 -0.4949
   80POPC   C2910649   7.016   1.947   5.006  0.2817  0.0211  0.1830
   80POPC   H9110650   7.041   1.983   4.906  1.0286 -1.6928 -0.2627
   80POPC  C21010651   6.888   1.924   5.038  0.1159  0.3964 -0.2076
   80POPC  H10110652   6.800   1.959   4.981 -1.2571 -0.5366  1.2805
   80POPC  C21110653   6.848   1.851   5.163 -0.1934  0.3346 -0.3406
   80POPC  H11R10654   6.935   1.807   5.217  0.3912  1.9772  0.0775
   80POPC  H11S10655   6.781   1.766   5.138  0.2488  0.3218 -1.4879
   80POPC  C21210656   6.758   1.926   5.262 -0.3762  0.1234 -0.3463
   80POPC  H12R10657   6.700   1.851   5.319  2.2752 -1.6128  0.2006
   80POPC  H12S10658   6.681   1.987   5.211 -0.1288  0.4023 -0.3905
   80POPC  C21310659   6.831   2.025   5.353 -0.2733  0.0798 -0.3792
   80POPC  H13R10660   6.862   2.116   5.297 -1.3810  0.5453 -0.2439
   80POPC  H13S10661   6.910   1.961   5.397 -0.6121 -0.4992 -0.6189
   80POPC  C21410662   6.736   2.084   5.458  0.0457 -0.3377  0.1423
   80POPC  H14R10663   6.805   2.109   5.542  3.1240 -2.7655 -1.5173
   80POPC  H14S10664   6.665   2.003   5.482 -1.2881  0.4202 -1.1893
   80POPC  C21510665   6.667   2.211   5.410 -0.0144 -0.5412 -0.3095
   80POPC  H15R10666   6.653   2.207   5.300  0.7880 -0.0748 -0.4327
   80POPC  H15S10667   6.728   2.302   5.423 -2.4368  1.3138 -1.4340
   80POPC  C21610668   6.535   2.240   5.481  0.4627 -0.5328  0.5760
   80POPC  H16R10669   6.487   2.322   5.423 -0.0051 -0.4223  1.1131
   80POPC  H16S10670   6.557   2.279   5.583  1.6989 -0.5710  0.3232
   80POPC  C21710671   6.421   2.137   5.479  0.3617 -0.4103  0.1415
   80POPC  H17R10672   6.460   2.036   5.501 -0.7436 -1.1428 -1.1489
   80POPC  H17S10673   6.394   2.135   5.371 -0.2759 -0.4268  0.2998
   80POPC  C21810674   6.298   2.192   5.550  0.8476  0.5081  0.2853
   80POPC  H18R10675   6.211   2.127   5.525 -0.1751  1.1334  2.0691
   80POPC  H18S10676   6.279   2.294   5.511 -1.1433  0.1819  0.3355
   80POPC  H18T10677   6.313   2.197   5.660  0.3980  1.3011  0.3138
   80POPC   C3310678   7.571   1.737   5.690 -0.1249  0.0069 -0.0119
   80POPC   H3X10679   7.502   1.808   5.640 -3.4526 -1.6930  2.0143
   80POPC   H3Y10680   7.518   1.651   5.736 -0.6168  0.3127 -0.0139
   80POPC   C3410681   7.668   1.694   5.579  0.0763 -0.0826  0.1969
   80POPC   H4X10682   7.608   1.621   5.520  0.5680 -0.6117  0.3422
   80POPC   H4Y10683   7.748   1.642   5.635 -1.9133 -2.2604  1.1345
   80POPC   C3510684   7.715   1.805   5.485 -0.1039  0.2373  0.4824
   80POPC   H5X10685   7.754   1.895   5.538  2.7743  0.6288 -2.1583
   80POPC   H5Y10686   7.618   1.835   5.440 -1.1985 -2.6020  0.8250
   80POPC   C3610687   7.821   1.764   5.382 -0.2289  0.0578  0.4246
   80POPC   H6X10688   7.801   1.664   5.338 -0.8614  0.6889 -0.7567
   80POPC   H6Y10689   7.922   1.767   5.428 -0.4997 -0.1950  1.0475
   80POPC   C3710690   7.820   1.864   5.267  0.0447 -0.0008  0.3714
   80POPC   H7X10691   7.922   1.852   5.224 -0.8261  0.4888 -1.9079
   80POPC   H7Y10692   7.796   1.962   5.313 -0.4406  0.5007 -0.9276
   80POPC   C3810693   7.699   1.831   5.179  0.4941 -0.1049 -0.2146
   80POPC   H8X10694   7.605   1.855   5.234 -0.0071 -2.2050 -0.0751
   80POPC   H8Y10695   7.701   1.721   5.160 -0.6028 -0.1938  0.1603
   80POPC   C3910696   7.710   1.901   5.044 -0.1734 -0.3030 -0.3733
   80POPC   H9X10697   7.620   1.876   4.983 -0.8221  1.8660 -0.3317
   80POPC   H9Y10698   7.799   1.863   4.990 -1.5626 -1.1881 -2.1067
   80POPC  C31010699   7.724   2.053   5.056  0.3215 -0.3947  0.1926
   80POPC  H10X10700   7.751   2.099   4.959  0.0284 -1.3770 -0.3647
   80POPC  H10Y10701   7.811   2.078   5.121  0.7859 -0.4083 -0.4218
   80POPC  C31110702   7.602   2.123   5.114  0.0558 -0.8178  0.1449
   80POPC  H11X10703   7.575   2.055   5.198 -2.0493 -1.0872 -0.7269
   80POPC  H11Y10704   7.524   2.119   5.035  0.3124  1.6555 -0.2650
   80POPC  C31210705   7.630   2.266   5.160  0.2257 -0.7369 -0.2081
   80POPC  H12X10706   7.720   2.279   5.224 -1.2287 -1.1058  1.9774
   80POPC  H12Y10707   7.544   2.293   5.225 -0.0834 -1.7778 -0.1849
   80POPC  C31310708   7.634   2.366   5.044 -0.5440 -0.1737  0.2470
   80POPC  H13X10709   7.528   2.384   5.017 -0.3209  1.4259  0.4244
   80POPC  H13Y10710   7.694   2.328   4.959 -1.6213  0.3107 -0.7380
   80POPC  C31410711   7.712   2.493   5.080 -0.0259 -0.2864 -0.4653
   80POPC  H14X10712   7.819   2.466   5.077  0.0327 -0.4550  2.2154
   80POPC  H14Y10713   7.679   2.521   5.183  0.0815 -0.5774 -0.3493
   80POPC  C31510714   7.675   2.614   4.995  0.2844 -0.0530 -0.2667
   80POPC  H15X10715   7.576   2.642   5.036 -0.5505 -5.0870  1.4972
   80POPC  H15Y10716   7.664   2.580   4.890 -0.1926 -1.0963  0.1160
   80POPC  C31610717   7.786   2.719   4.991  0.5514 -0.3151  0.2694
   80POPC  H16X10718   7.750   2.817   4.954 -1.9235 -2.1290 -2.2775
   80POPC  H16Y10719   7.867   2.692   4.921  1.4785 -2.3182  2.0649
   80POPC  H16Z10720   7.826   2.740   5.093 -0.4833  0.2245  0.5724
   81POPC     N10721   4.328   0.465   6.720 -0.2656  0.4171 -0.1157
   81POPC   C1210722   4.325   0.565   6.607  0.7038  0.0442 -0.4792
   81POPC  H12A10726   4.405   0.634   6.630  0.4405 -0.3684  1.7629
   81POPC  H12B10727   4.235   0.626   6.615 -0.8921 -2.1658 -1.1451
   81POPC   C1310723   4.446   0.372   6.716 -0.5891 -0.0024  0.0772
   81POPC  H13A10728   4.543   0.420   6.712 -0.8507  0.3604 -2.3271
   81POPC  H13B10729   4.447   0.311   6.805 -1.5342  1.5113  1.1415
   81POPC  H13C10730   4.435   0.304   6.633  0.4522 -0.4757  0.3057
   81POPC   C1410724   4.336   0.546   6.847  0.3960  0.2263 -0.0357
   81POPC  H14A10731   4.245   0.602   6.862  0.2456 -0.1517  0.4563
   81POPC  H14B10732   4.347   0.472   6.924 -0.2335 -1.3651 -1.4321
   81POPC  H14C10733   4.423   0.610   6.851  0.4251  0.4041 -2.5010
   81POPC   C1510725   4.198   0.388   6.725 -0.0890  0.1280  0.0018
   81POPC  H15A10734   4.114   0.447   6.756  2.4902  3.3247  1.2217
   81POPC  H15B10735   4.209   0.302   6.790  0.8089  1.7048  1.9838
   81POPC  H15C10736   4.178   0.351   6.625  4.8922 -0.1847 -1.0077
   81POPC   C1110737   4.341   0.517   6.462  0.2373 -0.1871 -0.4577
   81POPC  H11A10738   4.440   0.468   6.447  0.0138 -0.3265 -1.4598
   81POPC  H11B10739   4.337   0.608   6.399  0.9864  1.3355  1.6185
   81POPC     P10740   4.279   0.296   6.340  0.0644  0.4615  0.0035
   81POPC   O1310741   4.161   0.224   6.288  0.5807 -0.0324 -0.5075
   81POPC   O1410742   4.352   0.217   6.442  0.4001 -0.1220 -0.6773
   81POPC   O1210743   4.238   0.431   6.414 -0.4061  0.1306  0.3463
   81POPC   O1110744   4.380   0.348   6.226  0.1973  0.3241  0.0576
   81POPC    C110745   4.319   0.430   6.127 -0.1882 -0.2003 -0.1443
   81POPC    HA10746   4.398   0.502   6.096  0.6891 -0.7214  0.8599
   81POPC    HB10747   4.234   0.497   6.152 -1.1314 -1.1615 -0.7268
   81POPC    C210748   4.276   0.344   6.007  0.5562  0.0549 -0.5975
   81POPC    HS10749   4.170   0.314   6.021  0.7332  0.2032  1.1865
   81POPC   O2110750   4.353   0.223   5.999  0.4666 -0.0155 -0.3923
   81POPC   C2110751   4.286   0.117   5.953 -0.1186  0.0875  0.2034
   81POPC   O2210752   4.168   0.117   5.925 -0.0997 -0.2362  0.1295
   81POPC   C2210753   4.377   7.958   5.934 -0.0335  0.1715 -0.2052
   81POPC   H2R10754   4.327   7.872   5.886  2.2318 -0.1129 -2.1386
   81POPC   H2S10755   4.396   7.913   6.034  1.9843  1.9006  0.2179
   81POPC    C310756   4.298   0.419   5.875 -0.2895  0.6665 -0.3959
   81POPC    HX10757   4.407   0.438   5.862 -0.2325 -0.4180 -1.6532
   81POPC    HY10758   4.237   0.511   5.881 -1.2153 -0.0345  1.3652
   81POPC   O3110759   4.264   0.347   5.756 -0.0263  0.4480 -0.3388
   81POPC   C3110760   4.135   0.331   5.728 -0.0668  0.3569 -0.0906
   81POPC   O3210761   4.041   0.369   5.796 -0.0637  0.0357  0.0940
   81POPC   C3210762   4.135   0.253   5.597  0.6618  0.5804 -0.2258
   81POPC   H2X10763   4.054   0.178   5.610  0.6349  0.8547  1.3489
   81POPC   H2Y10764   4.225   0.189   5.589 -0.0285 -0.7880  2.2272
   81POPC   C2310765   4.511   0.023   5.866  0.3303 -0.4058  0.2613
   81POPC   H3R10766   4.571   0.073   5.945  1.9882 -1.0400 -0.5638
   81POPC   H3S10767   4.496   0.095   5.783  2.7692  0.1920  0.2938
   81POPC   C2410768   4.582   7.861   5.811  0.2967 -0.4678  0.2648
   81POPC   H4R10769   4.602   7.797   5.900 -0.4642 -0.3839  0.5018
   81POPC   H4S10770   4.679   7.888   5.764  0.0962  1.0592  0.6911
   81POPC   C2510771   4.508   7.768   5.715 -0.0367 -0.1735  0.2365
   81POPC   H5R10772   4.410   7.737   5.758  1.7794 -2.3578  3.0249
   81POPC   H5S10773   4.561   7.673   5.692 -1.6149 -1.4041  1.5103
   81POPC   C2610774   4.474   7.836   5.583  0.1770 -0.4702  0.0292
   81POPC   H6R10775   4.570   7.862   5.534 -0.8454  2.6838 -0.4080
   81POPC   H6S10776   4.430   7.937   5.597 -0.4302 -0.2673 -2.9505
   81POPC   C2710777   4.372   7.761   5.496 -0.1646 -0.2176  0.2122
   81POPC   H7R10778   4.273   7.760   5.547  0.1192  0.9147  0.7984
   81POPC   H7S10779   4.406   7.657   5.515 -0.9169 -1.0949 -3.0198
   81POPC   C2810780   4.358   7.793   5.347 -0.7120  0.3516  0.3820
   81POPC   H8R10781   4.457   7.778   5.298 -0.9602  1.5588 -0.5015
   81POPC   H8S10782   4.330   7.900   5.337 -2.8490 -0.3507 -1.2825
   81POPC   C2910783   4.250   7.702   5.296 -0.1232 -0.2336  0.1750
   81POPC   H9110784   4.166   7.709   5.366 -0.7772  0.0154 -0.6346
   81POPC  C21010785   4.249   7.624   5.187 -0.2494  0.3541 -0.2441
   81POPC  H10110786   4.161   7.561   5.169 -0.9330  1.6237 -1.4267
   81POPC  C21110787   4.368   7.608   5.097 -0.1281 -0.3329  0.0347
   81POPC  H11R10788   4.397   7.501   5.093  2.5777  0.3923 -0.7211
   81POPC  H11S10789   4.462   7.661   5.125 -0.5012 -1.0804  2.8522
   81POPC  C21210790   4.311   7.630   4.957 -0.1423  0.4487  0.1580
   81POPC  H12R10791   4.262   7.730   4.949 -1.1161 -0.1720 -2.0631
   81POPC  H12S10792   4.237   7.549   4.937  0.2336  0.5047 -1.5119
   81POPC  C21310793   4.423   7.629   4.853 -0.1350  0.0536  0.1692
   81POPC  H13R10794   4.496   7.546   4.865  0.5766  0.2692 -2.3581
   81POPC  H13S10795   4.483   7.722   4.864  0.0428 -0.2638  2.1698
   81POPC  C21410796   4.370   7.614   4.710  0.4343 -0.5282  0.0157
   81POPC  H14R10797   4.299   7.698   4.695  3.7613  2.1644 -1.0730
   81POPC  H14S10798   4.320   7.515   4.705  0.5187 -0.4738 -2.0970
   81POPC  C21510799   4.479   7.629   4.604  0.0418 -0.0127 -0.3130
   81POPC  H15R10800   4.562   7.563   4.635 -0.5046 -0.0081  1.1887
   81POPC  H15S10801   4.522   7.731   4.594 -1.5855  0.8347  1.0417
   81POPC  C21610802   4.421   7.583   4.470 -0.3612  0.0211 -0.1501
   81POPC  H16R10803   4.334   7.647   4.444 -0.5840  0.6822  2.1211
   81POPC  H16S10804   4.389   7.477   4.479 -0.6782 -0.0136 -1.5923
   81POPC  C21710805   4.515   7.592   4.350 -0.8892  0.1795 -0.5583
   81POPC  H17R10806   4.591   7.510   4.346  0.5323  1.4439 -0.1171
   81POPC  H17S10807   4.563   7.692   4.357  1.8074 -1.0160 -1.4035
   81POPC  C21810808   4.440   7.575   4.218 -0.1540  1.0891 -1.1020
   81POPC  H18R10809   4.395   7.473   4.221 -0.6796  1.3579  3.1000
   81POPC  H18S10810   4.508   7.585   4.131  0.4412 -0.0373 -0.7863
   81POPC  H18T10811   4.361   7.652   4.200 -1.1652  0.4564  0.5099
   81POPC   C3310812   4.115   0.342   5.474  1.1840  0.4165 -0.4284
   81POPC   H3X10813   4.209   0.398   5.456  0.1729  2.0048 -0.8373
   81POPC   H3Y10814   4.034   0.414   5.497  0.3869 -0.8061  0.6697
   81POPC   C3410815   4.090   0.263   5.346  0.3988  0.1154 -0.0930
   81POPC   H4X10816   3.992   0.212   5.349 -0.9288  2.6491  0.7663
   81POPC   H4Y10817   4.181   0.199   5.335  3.2650  3.6624  1.9123
   81POPC   C3510818   4.091   0.365   5.232 -0.4510  0.0733 -0.1378
   81POPC   H5X10819   4.191   0.412   5.220 -1.2389  1.7643 -0.1905
   81POPC   H5Y10820   4.020   0.444   5.264 -1.4799 -1.8069  2.3410
   81POPC   C3610821   4.046   0.312   5.095  0.2809 -0.9636  0.0189
   81POPC   H6X10822   3.937   0.287   5.088 -0.5093  2.0089  0.9858
   81POPC   H6Y10823   4.095   0.212   5.090 -1.5120 -1.7800 -1.9187
   81POPC   C3710824   4.087   0.399   4.977 -0.6754 -0.1354  0.2911
   81POPC   H7X10825   4.197   0.406   4.967 -0.5959  0.5549  1.5176
   81POPC   H7Y10826   4.052   0.502   4.999  2.0222  0.2698  2.9468
   81POPC   C3810827   4.023   0.359   4.844  0.0343 -0.1161 -0.0582
   81POPC   H8X10828   3.914   0.372   4.861  0.1826  0.8346  0.1824
   81POPC   H8Y10829   4.040   0.249   4.837 -0.8295 -0.0793 -3.6803
   81POPC   C3910830   4.090   0.430   4.726 -0.0880 -0.1523 -0.1504
   81POPC   H9X10831   4.199   0.415   4.715  0.1780  0.9216  0.8368
   81POPC   H9Y10832   4.073   0.539   4.741 -1.3477 -0.4667  0.7718
   81POPC  C31010833   4.019   0.386   4.598 -0.2708  0.2223 -0.1789
   81POPC  H10X10834   3.911   0.407   4.613  0.0437  1.2009  0.7614
   81POPC  H10Y10835   4.024   0.275   4.594  2.0749  0.2858  0.0845
   81POPC  C31110836   4.062   0.452   4.466 -0.1828  0.1836 -0.1706
   81POPC  H11X10837   4.172   0.442   4.463 -0.2402  0.0712 -2.4561
   81POPC  H11Y10838   4.036   0.560   4.472 -0.7144  0.0185  0.7358
   81POPC  C31210839   4.008   0.385   4.339 -0.0456  0.0179 -0.1407
   81POPC  H12X10840   3.899   0.395   4.352 -0.2462 -0.8807 -1.1074
   81POPC  H12Y10841   4.029   0.277   4.353  0.8786  0.2240  0.1535
   81POPC  C31310842   4.060   0.451   4.211  0.7266 -0.1731  0.0676
   81POPC  H13X10843   4.170   0.437   4.215  0.6786 -0.3403  0.8027
   81POPC  H13Y10844   4.034   0.558   4.199  0.8446 -0.3466 -2.0324
   81POPC  C31410845   3.992   0.376   4.096  0.1380  0.4179  0.0316
   81POPC  H14X10846   3.884   0.388   4.119  0.3285 -0.8470  1.6199
   81POPC  H14Y10847   4.014   0.268   4.086 -3.3494 -0.5402  2.0148
   81POPC  C31510848   4.032   0.438   3.962 -0.0949 -0.0986 -0.2779
   81POPC  H15X10849   4.013   0.548   3.966  2.1277  0.2523  1.3752
   81POPC  H15Y10850   3.966   0.394   3.884  1.3448 -1.6703 -0.6232
   81POPC  C31610851   4.177   0.419   3.920 -0.0072 -0.2276  0.0855
   81POPC  H16X10852   4.245   0.456   4.000 -0.4227  0.6000  0.0554
   81POPC  H16Y10853   4.208   0.479   3.832 -0.4097  0.0535  0.1360
   81POPC  H16Z10854   4.198   0.311   3.903 -3.2277 -0.6328 -1.7360
   82POPC     N10855   0.993   3.507   6.608  0.1880  0.1268  0.2023
   82POPC   C1210856   0.924   3.579   6.494  0.0993 -0.0396  0.1498
   82POPC  H12A10860   0.828   3.619   6.522 -1.2935 -2.6498 -0.7477
   82POPC  H12B10861   0.901   3.509   6.415 -0.5087 -1.8374  1.8744
   82POPC   C1310857   0.889   3.441   6.694 -0.4761  0.1523 -0.5755
   82POPC  H13A10862   0.944   3.398   6.776 -0.3529  0.6287 -0.4025
   82POPC  H13B10863   0.807   3.504   6.727 -2.0949 -2.9169  1.5544
   82POPC  H13C10864   0.849   3.358   6.638 -3.1905  0.8105  0.2913
   82POPC   C1410858   1.087   3.401   6.556 -0.0030 -0.1036  0.3270
   82POPC  H14A10865   1.033   3.327   6.499  0.2513  1.1723 -1.5991
   82POPC  H14B10866   1.161   3.444   6.490 -0.2098 -1.5717 -0.8882
   82POPC  H14C10867   1.139   3.354   6.639  0.2555 -0.6289 -0.1324
   82POPC   C1510859   1.078   3.599   6.691 -0.1026  0.1606  0.4625
   82POPC  H15A10868   1.147   3.653   6.628  0.2120  0.2683  0.8892
   82POPC  H15B10869   1.128   3.551   6.774 -0.3703 -0.1124  0.4648
   82POPC  H15C10870   1.006   3.667   6.734 -1.3369 -0.7541 -0.1648
   82POPC   C1110871   1.003   3.700   6.443  0.1508  0.1781  0.7353
   82POPC  H11A10872   1.013   3.779   6.520  0.5183  1.5583 -0.7012
   82POPC  H11B10873   0.948   3.734   6.352  0.3131 -2.5068 -0.4028
   82POPC     P10874   1.206   3.794   6.342  0.2424  0.2137 -0.0282
   82POPC   O1310875   1.345   3.751   6.312  0.2067  0.2021 -0.1747
   82POPC   O1410876   1.186   3.908   6.435  0.0670 -0.2607  0.5218
   82POPC   O1210877   1.128   3.661   6.387 -0.1322  0.4170 -0.0722
   82POPC   O1110878   1.149   3.845   6.202  0.1750 -0.0537 -0.0989
   82POPC    C110879   1.131   3.748   6.098 -0.1334 -0.1536  0.0452
   82POPC    HA10880   1.041   3.774   6.040  0.0510 -1.2758 -0.7405
   82POPC    HB10881   1.120   3.645   6.139 -0.2571 -0.6778 -1.3107
   82POPC    C210882   1.255   3.752   6.007 -0.4507  0.2943 -0.3709
   82POPC    HS10883   1.334   3.708   6.072 -0.1692  1.3070 -0.0056
   82POPC   O2110884   1.288   3.887   5.974  0.5226  0.1855  0.1116
   82POPC   C2110885   1.408   3.892   5.915  0.3938  0.2027 -0.1528
   82POPC   O2210886   1.488   3.803   5.895  0.1105 -0.1851  0.4326
   82POPC   C2210887   1.436   4.033   5.865 -0.1804  0.2346 -0.3873
   82POPC   H2R10888   1.543   4.051   5.842 -0.2061  2.8005  1.3038
   82POPC   H2S10889   1.416   4.096   5.954  2.5723  1.5374 -0.6547
   82POPC    C310890   1.213   3.675   5.881 -0.1588 -0.2282 -0.1529
   82POPC    HX10891   1.184   3.572   5.911  0.9624 -0.0559  1.5920
   82POPC    HY10892   1.298   3.659   5.812 -1.8347 -0.7861 -2.1357
   82POPC   O3110893   1.111   3.745   5.809  0.1340  0.1817 -0.1709
   82POPC   C3110894   1.111   3.716   5.679  0.2898  0.0763 -0.1465
   82POPC   O3210895   1.173   3.619   5.638 -0.2628 -0.3422 -0.0009
   82POPC   C3210896   1.015   3.802   5.597 -0.1404 -0.0151  0.2577
   82POPC   H2X10897   0.987   3.903   5.634 -0.1544  0.5710 -1.3437
   82POPC   H2Y10898   0.917   3.752   5.586 -0.3240  0.5286 -0.5350
   82POPC   C2310899   1.349   4.087   5.751 -0.8734  0.6069  0.3133
   82POPC   H3R10900   1.243   4.102   5.783 -1.1687 -3.0079  1.2713
   82POPC   H3S10901   1.349   4.015   5.666  2.0046 -1.1538  1.7467
   82POPC   C2410902   1.402   4.217   5.691  0.0779  0.1571  0.1823
   82POPC   H4R10903   1.509   4.211   5.660  0.5360 -0.1916  1.7693
   82POPC   H4S10904   1.405   4.307   5.756  0.0539  0.0841  0.2852
   82POPC   C2510905   1.331   4.257   5.562 -0.1158  1.1288  0.5848
   82POPC   H5R10906   1.220   4.252   5.568 -0.1900 -1.5826 -1.6183
   82POPC   H5S10907   1.351   4.183   5.481 -2.8611 -0.5939  1.4191
   82POPC   C2610908   1.370   4.391   5.500  0.7840  0.7057  0.2304
   82POPC   H6R10909   1.381   4.376   5.390 -1.9722  0.7351 -0.0906
   82POPC   H6S10910   1.470   4.415   5.541  1.1199  0.3894 -0.3806
   82POPC   C2710911   1.274   4.507   5.525 -0.2793 -0.1620  0.2182
   82POPC   H7R10912   1.328   4.600   5.495  1.6976 -1.7631 -1.3288
   82POPC   H7S10913   1.256   4.508   5.634  1.3612  1.6618  0.5039
   82POPC   C2810914   1.139   4.508   5.453 -0.3866  0.1623  0.4219
   82POPC   H8R10915   1.062   4.572   5.501 -0.9108  0.5320 -0.8779
   82POPC   H8S10916   1.085   4.411   5.448 -1.2957  0.7230 -0.9118
   82POPC   C2910917   1.170   4.568   5.318 -0.1332 -0.2005  0.3188
   82POPC   H9110918   1.263   4.522   5.282 -1.2797 -2.2093 -0.1744
   82POPC  C21010919   1.115   4.678   5.265 -0.0362 -0.3141 -0.0227
   82POPC  H10110920   1.134   4.697   5.159  1.4988 -0.4648  0.2047
   82POPC  C21110921   1.008   4.767   5.322 -0.0199 -0.2150 -0.1470
   82POPC  H11R10922   1.025   4.874   5.300  0.7443 -0.3023 -0.0215
   82POPC  H11S10923   1.000   4.749   5.432  0.3151  0.0249 -0.0841
   82POPC  C21210924   0.870   4.737   5.264 -0.1002 -0.5659  0.2198
   82POPC  H12R10925   0.799   4.803   5.320 -0.3470  0.3980 -1.2001
   82POPC  H12S10926   0.840   4.632   5.285 -1.1097 -0.4159 -0.4356
   82POPC  C21310927   0.860   4.782   5.118 -0.0655 -0.3123  0.2951
   82POPC  H13R10928   0.949   4.730   5.078  2.1991  2.0645  2.0784
   82POPC  H13S10929   0.867   4.892   5.107 -0.1456 -0.4703 -1.3815
   82POPC  C21410930   0.727   4.743   5.053  0.0482 -0.2474  0.0258
   82POPC  H14R10931   0.640   4.780   5.110 -1.3698 -0.8962 -1.6784
   82POPC  H14S10932   0.725   4.632   5.044  1.3984 -0.6664  3.9211
   82POPC  C21510933   0.709   4.796   4.911  0.4631 -0.5544 -0.1447
   82POPC  H15R10934   0.783   4.752   4.841  0.2573 -2.0660  0.5775
   82POPC  H15S10935   0.734   4.905   4.910 -1.4295 -0.0996  0.7985
   82POPC  C21610936   0.578   4.758   4.841  0.1661  0.3692 -0.1026
   82POPC  H16R10937   0.493   4.823   4.870 -0.5783 -0.5399 -0.2253
   82POPC  H16S10938   0.560   4.655   4.879  2.5236 -0.0589 -0.0225
   82POPC  C21710939   0.584   4.784   4.690 -0.5383  0.1506 -0.1711
   82POPC  H17R10940   0.492   4.767   4.632 -0.1797 -1.5369 -0.2631
   82POPC  H17S10941   0.664   4.715   4.655 -0.4487  1.0488 -1.7446
   82POPC  C21810942   0.642   4.921   4.653  0.0894  0.0853  0.5432
   82POPC  H18R10943   0.749   4.932   4.681 -0.2441  0.1468  1.8309
   82POPC  H18S10944   0.592   5.012   4.694  0.0318  1.1429 -1.8175
   82POPC  H18T10945   0.632   4.929   4.543  1.4682 -0.2648  0.3899
   82POPC   C3310946   1.073   3.816   5.456  0.4844 -0.0278  0.5094
   82POPC   H3X10947   0.985   3.839   5.393  0.0196 -2.3051  0.2752
   82POPC   H3Y10948   1.108   3.719   5.416  0.1741  0.7383 -1.6747
   82POPC   C3410949   1.194   3.909   5.451  0.5621 -0.1430  0.2692
   82POPC   H4X10950   1.259   3.863   5.528  0.1490 -0.8448  0.2025
   82POPC   H4Y10951   1.146   4.003   5.485  4.0640  2.7735 -2.3322
   82POPC   C3510952   1.262   3.935   5.316  0.4904  0.5168  0.3583
   82POPC   H5X10953   1.271   3.841   5.258  1.3150  0.9189 -0.1745
   82POPC   H5Y10954   1.362   3.979   5.335  0.8630 -0.2579  0.1984
   82POPC   C3610955   1.177   4.025   5.224  0.1587 -0.0281  0.1293
   82POPC   H6X10956   1.153   4.129   5.255 -1.8493 -0.3103 -0.4247
   82POPC   H6Y10957   1.079   3.974   5.213 -0.4035  1.1202 -0.2273
   82POPC   C3710958   1.234   4.032   5.082  0.3640  0.8058  0.2498
   82POPC   H7X10959   1.167   4.086   5.012 -0.0373  0.9740  0.7597
   82POPC   H7Y10960   1.228   3.926   5.049 -3.4275  0.9231  0.2582
   82POPC   C3810961   1.377   4.082   5.066  0.3767  0.3961 -0.9471
   82POPC   H8X10962   1.385   4.077   4.955 -0.9525  1.4441 -1.0956
   82POPC   H8Y10963   1.454   4.017   5.114 -0.1865  0.2021 -0.2918
   82POPC   C3910964   1.383   4.227   5.115  0.8069  0.1728 -0.3289
   82POPC   H9X10965   1.349   4.228   5.221 -0.2050 -1.1657 -0.6099
   82POPC   H9Y10966   1.302   4.270   5.052  1.5176  2.5919  0.3840
   82POPC  C31010967   1.514   4.298   5.081  0.8259  0.3338  0.0725
   82POPC  H10X10968   1.560   4.258   4.987 -0.5445  0.7940 -0.8111
   82POPC  H10Y10969   1.580   4.261   5.162  0.9374  1.8430  0.6843
   82POPC  C31110970   1.483   4.447   5.069  0.2495  0.1663 -0.6353
   82POPC  H11X10971   1.473   4.480   5.175 -0.0023 -2.5687  0.2375
   82POPC  H11Y10972   1.389   4.451   5.011 -0.1962  1.6657  0.1733
   82POPC  C31210973   1.589   4.526   4.992  0.5102  0.8114  0.3673
   82POPC  H12X10974   1.683   4.515   5.051 -0.5941 -1.8443  1.6893
   82POPC  H12Y10975   1.551   4.630   5.000  0.4004  0.7425  0.7492
   82POPC  C31310976   1.609   4.476   4.849  0.0742  0.8053  0.3076
   82POPC  H13X10977   1.511   4.437   4.815  1.7341 -0.6839 -3.0354
   82POPC  H13Y10978   1.673   4.385   4.857  1.7870  2.0851  1.3739
   82POPC  C31410979   1.660   4.576   4.745  0.3220 -0.1161 -0.4648
   82POPC  H14X10980   1.742   4.629   4.799 -0.8202 -1.1009  2.2882
   82POPC  H14Y10981   1.576   4.632   4.701 -0.0217 -0.9207 -0.8485
   82POPC  C31510982   1.733   4.509   4.628  0.6815  0.2815 -0.4706
   82POPC  H15X10983   1.828   4.467   4.665 -0.0139  1.6254  3.0434
   82POPC  H15Y10984   1.762   4.597   4.567  2.3223  0.3304  0.3520
   82POPC  C31610985   1.648   4.413   4.545 -0.4461  0.0600  0.9136
   82POPC  H16X10986   1.714   4.397   4.457 -3.4023  0.6318 -1.5026
   82POPC  H16Y10987   1.557   4.463   4.506  1.0595  1.1382 -1.3393
   82POPC  H16Z10988   1.626   4.317   4.595 -1.2301  0.2731  0.9955
   83POPC     N10989   4.044   7.409   6.738 -0.1265  0.0543  0.1023
   83POPC   C1210990   4.159   7.362   6.651  0.1696  0.1731  0.4276
   83POPC  H12A10994   4.247   7.371   6.713 -0.5524 -0.1228  1.5240
   83POPC  H12B10995   4.173   7.432   6.571  0.3195 -0.5155 -0.1511
   83POPC   C1310991   3.914   7.428   6.664  0.1344  0.6187 -0.2149
   83POPC  H13A10996   3.840   7.454   6.737  1.3920  0.6660  1.0621
   83POPC  H13B10997   3.929   7.513   6.598 -0.2318  0.0447 -1.0515
   83POPC  H13C10998   3.876   7.341   6.612  1.1282  0.8801 -1.4169
   83POPC   C1410992   4.016   7.308   6.846  0.2309 -0.1517  0.0061
   83POPC  H14A10999   4.111   7.271   6.882  0.9226  1.3910 -0.2133
   83POPC  H14B11000   3.970   7.373   6.919  0.7130  1.4085 -1.0677
   83POPC  H14C11001   3.944   7.235   6.813  0.4517 -0.6525  0.6113
   83POPC   C1510993   4.075   7.544   6.799 -0.0894 -0.0746  0.3704
   83POPC  H15A11002   4.169   7.541   6.853 -0.0211 -0.7752  0.2250
   83POPC  H15B11003   3.995   7.572   6.866 -2.0326  1.0001 -2.3039
   83POPC  H15C11004   4.086   7.617   6.720  2.7042 -0.3425  0.4620
   83POPC   C1111005   4.169   7.216   6.607  0.3641  0.1317  0.6125
   83POPC  H11A11006   4.186   7.159   6.701 -1.9305  0.8448  1.4977
   83POPC  H11B11007   4.262   7.213   6.546  0.7261 -2.0476  1.2081
   83POPC     P11008   4.092   7.026   6.463 -0.2957 -0.0587 -0.0448
   83POPC   O1311009   3.975   6.936   6.476 -0.4776  0.2165  0.2218
   83POPC   O1411010   4.219   6.970   6.516 -0.1350  0.1961 -0.1640
   83POPC   O1211011   4.054   7.156   6.547  0.6616  0.2504 -0.0825
   83POPC   O1111012   4.106   7.071   6.311 -0.0847  0.3239  0.0884
   83POPC    C111013   4.115   7.212   6.289 -0.2916  0.2612 -0.4271
   83POPC    HA11014   4.214   7.245   6.329 -0.7916 -1.1125  2.0829
   83POPC    HB11015   4.040   7.279   6.337 -1.2094 -1.4199  0.5437
   83POPC    C211016   4.123   7.258   6.143  0.1936  0.4216 -0.3512
   83POPC    HS11017   4.022   7.243   6.100 -0.1160  1.6588 -0.0650
   83POPC   O2111018   4.210   7.161   6.085 -0.2136 -0.2639  0.1785
   83POPC   C2111019   4.175   7.115   5.965  0.6013  0.5266 -0.3727
   83POPC   O2211020   4.072   7.146   5.906 -0.2071  0.0146  0.7585
   83POPC   C2211021   4.279   7.026   5.898 -0.3849 -1.0979  0.2100
   83POPC   H2R11022   4.276   6.920   5.929  2.5763 -1.2462  0.0958
   83POPC   H2S11023   4.380   7.069   5.916 -0.8077  0.0097  0.0133
   83POPC    C311024   4.174   7.401   6.119 -0.1558  0.6754  0.4117
   83POPC    HX11025   4.283   7.402   6.139 -0.2448 -0.2693  0.9381
   83POPC    HY11026   4.118   7.474   6.182  1.0003  2.6734 -0.8312
   83POPC   O3111027   4.164   7.424   5.978 -0.1541 -0.3306  0.2508
   83POPC   C3111028   4.113   7.539   5.937 -0.0829 -0.2960  0.2571
   83POPC   O3211029   4.079   7.631   6.010 -0.6864 -0.2643 -0.0603
   83POPC   C3211030   4.118   7.562   5.786  0.0803 -0.1953  0.2784
   83POPC   H2X11031   4.187   7.646   5.768  0.5331 -0.4931  0.6156
   83POPC   H2Y11032   4.017   7.590   5.749 -0.5852 -0.7632  1.6073
   83POPC   C2311033   4.249   7.023   5.748  0.1609  1.0071  0.0404
   83POPC   H3R11034   4.245   7.129   5.714 -1.1747  0.1760 -2.4441
   83POPC   H3S11035   4.151   6.984   5.713  0.5652  0.8694 -0.9621
   83POPC   C2411036   4.357   6.956   5.663 -0.7046 -0.0623 -0.2226
   83POPC   H4R11037   4.453   6.974   5.717  1.5924 -0.4552 -3.9607
   83POPC   H4S11038   4.360   7.012   5.567  2.9536  0.6939  0.2379
   83POPC   C2511039   4.346   6.808   5.624 -0.3520 -0.1055 -0.1584
   83POPC   H5R11040   4.323   6.748   5.714  0.7465  0.3586  0.4457
   83POPC   H5S11041   4.443   6.769   5.588 -0.6893  0.5482 -1.8388
   83POPC   C2611042   4.226   6.770   5.537 -0.4479 -0.0164 -0.0664
   83POPC   H6R11043   4.135   6.807   5.587 -0.0210  0.5996  0.2590
   83POPC   H6S11044   4.214   6.660   5.531 -0.5984 -0.1237  1.9401
   83POPC   C2711045   4.235   6.820   5.393  0.0602  0.0848 -0.0012
   83POPC   H7R11046   4.299   6.750   5.334 -0.2175 -0.8551  0.8124
   83POPC   H7S11047   4.282   6.921   5.383 -1.7759  0.8205 -1.5172
   83POPC   C2811048   4.101   6.827   5.319 -0.0178  0.5348  0.1831
   83POPC   H8R11049   4.025   6.880   5.381 -0.0826 -1.8164  2.1890
   83POPC   H8S11050   4.061   6.724   5.315  1.3035  0.0580 -1.0735
   83POPC   C2911051   4.108   6.891   5.183 -0.2986  0.0232 -0.0701
   83POPC   H9111052   4.205   6.937   5.158 -0.0326 -0.1972  0.5387
   83POPC  C21011053   4.018   6.891   5.084 -0.3420  0.1745 -0.0313
   83POPC  H10111054   4.053   6.941   4.993 -0.3074 -0.5241 -0.4024
   83POPC  C21111055   3.880   6.832   5.076 -0.0485 -0.4192 -0.7471
   83POPC  H11R11056   3.842   6.793   5.173 -1.7087 -1.9301 -1.9768
   83POPC  H11S11057   3.886   6.748   5.004  0.5080 -0.6926 -0.3850
   83POPC  C21211058   3.780   6.939   5.034 -0.0685 -0.2703 -0.3231
   83POPC  H12R11059   3.767   7.001   5.125 -0.0116  2.8540 -2.3550
   83POPC  H12S11060   3.681   6.891   5.019 -0.9417  1.4404 -0.1717
   83POPC  C21311061   3.808   7.036   4.919  0.4393  0.2808  0.2593
   83POPC  H13R11062   3.838   6.969   4.836 -0.7540  0.1843 -0.1133
   83POPC  H13S11063   3.898   7.098   4.939  0.9577 -0.4460  0.1909
   83POPC  C21411064   3.684   7.117   4.880  0.3433 -0.1243 -0.2940
   83POPC  H14R11065   3.718   7.186   4.800 -1.4351 -0.2502 -1.1677
   83POPC  H14S11066   3.644   7.173   4.968 -0.3409 -0.2404 -0.5256
   83POPC  C21511067   3.583   7.027   4.810  0.0282  0.1610 -0.2119
   83POPC  H15R11068   3.527   6.963   4.882 -1.0065  0.6027 -0.6109
   83POPC  H15S11069   3.640   6.968   4.735  0.9095  1.3673 -0.4912
   83POPC  C21611070   3.478   7.112   4.738 -0.3154  0.0493  0.1542
   83POPC  H16R11071   3.526   7.187   4.672 -0.5049  0.5744  0.6011
   83POPC  H16S11072   3.415   7.168   4.812 -0.5796 -0.4851  0.3316
   83POPC  C21711073   3.385   7.034   4.646  0.1703 -0.3970  0.0398
   83POPC  H17R11074   3.294   7.092   4.618  0.1416  1.0878  2.9651
   83POPC  H17S11075   3.351   6.952   4.713 -0.4608  0.5627  0.9192
   83POPC  C21811076   3.443   6.992   4.511 -0.1253 -0.0737 -0.1891
   83POPC  H18R11077   3.516   6.911   4.530 -1.9455 -1.4172  1.3575
   83POPC  H18S11078   3.495   7.081   4.471  1.7199 -1.2144 -0.3842
   83POPC  H18T11079   3.364   6.961   4.439  1.1283  0.0136 -1.6282
   83POPC   C3311080   4.148   7.436   5.705 -0.0727 -0.2408  0.2933
   83POPC   H3X11081   4.068   7.365   5.737 -0.0265 -0.1434  0.6241
   83POPC   H3Y11082   4.248   7.397   5.732  0.4745  0.9272 -0.0184
   83POPC   C3411083   4.153   7.441   5.552 -0.2675 -0.1413  0.2900
   83POPC   H4X11084   4.208   7.534   5.528 -2.3912  1.5250  1.6934
   83POPC   H4Y11085   4.056   7.443   5.498 -1.6385 -1.7422  2.6264
   83POPC   C3511086   4.223   7.318   5.495 -0.2581  0.0325 -0.0786
   83POPC   H5X11087   4.159   7.230   5.518 -0.2467 -0.2881 -1.2136
   83POPC   H5Y11088   4.318   7.298   5.550 -0.6412 -0.6345  0.3453
   83POPC   C3611089   4.236   7.314   5.342  0.0477  0.2171 -0.0569
   83POPC   H6X11090   4.308   7.392   5.308  0.3892 -0.3679 -0.6774
   83POPC   H6Y11091   4.137   7.349   5.305 -0.2207  1.1944  1.5066
   83POPC   C3711092   4.282   7.183   5.279 -0.3346  0.2777 -0.4652
   83POPC   H7X11093   4.211   7.102   5.308  0.3787 -0.1625  0.1123
   83POPC   H7Y11094   4.383   7.159   5.319 -0.4879  1.1107  0.4378
   83POPC   C3811095   4.296   7.185   5.127 -0.5834 -0.2604 -0.4963
   83POPC   H8X11096   4.324   7.082   5.096  3.0125  0.3716  0.3989
   83POPC   H8Y11097   4.387   7.248   5.116  0.8661 -1.6955  2.5468
   83POPC   C3911098   4.180   7.227   5.036 -0.4768 -0.1016 -0.5577
   83POPC   H9X11099   4.162   7.334   5.061  1.4310  0.0600  0.2503
   83POPC   H9Y11100   4.097   7.160   5.067 -0.5094  0.4140  0.4967
   83POPC  C31011101   4.229   7.226   4.891  0.2971 -0.1510 -0.3004
   83POPC  H10X11102   4.271   7.126   4.867 -0.0037 -0.7017  1.4247
   83POPC  H10Y11103   4.314   7.296   4.883  0.5214 -0.3305  0.5235
   83POPC  C31111104   4.125   7.275   4.790  0.5020  0.1289 -0.3739
   83POPC  H11X11105   4.140   7.385   4.784 -2.3668  0.7598  2.7936
   83POPC  H11Y11106   4.025   7.256   4.833  0.3483 -1.7179 -1.5258
   83POPC  C31211107   4.136   7.207   4.653  0.3712 -0.2745 -0.1815
   83POPC  H12X11108   4.130   7.096   4.663 -1.7018 -0.5062 -3.5208
   83POPC  H12Y11109   4.243   7.225   4.628 -0.0804  1.6204 -0.7923
   83POPC  C31311110   4.040   7.267   4.550  0.0893 -0.9427 -0.3095
   83POPC  H13X11111   4.050   7.376   4.537  0.0783 -0.9687 -0.5303
   83POPC  H13Y11112   3.937   7.245   4.586 -0.6848 -0.9949 -2.5161
   83POPC  C31411113   4.059   7.191   4.419 -0.2432 -0.7910 -0.4460
   83POPC  H14X11114   4.027   7.085   4.433 -0.9629 -0.0484  4.2018
   83POPC  H14Y11115   4.163   7.203   4.382  0.2993 -0.3417  1.1788
   83POPC  C31511116   3.973   7.238   4.301  0.1709  0.8826 -0.0907
   83POPC  H15X11117   3.991   7.347   4.289  0.0097  0.7701 -1.3819
   83POPC  H15Y11118   3.865   7.228   4.326 -0.4896  2.3728 -2.2980
   83POPC  C31611119   4.015   7.190   4.162  0.6309  0.5928  0.1453
   83POPC  H16X11120   4.124   7.209   4.150  0.7703 -0.8584 -0.9482
   83POPC  H16Y11121   3.967   7.263   4.093 -1.7888  0.9031  2.0846
   83POPC  H16Z11122   3.986   7.083   4.155  0.7296  0.5381  0.5137
   84POPC     N11123   6.734   3.522   6.280  0.1935 -0.4816 -0.2376
   84POPC   C1211124   6.669   3.386   6.282 -0.0016 -0.3765  0.7602
   84POPC  H12A11128   6.562   3.404   6.288  0.1663 -0.0712  3.3308
   84POPC  H12B11129   6.695   3.326   6.368 -0.9333 -0.9845  0.6293
   84POPC   C1311125   6.688   3.601   6.400  0.3287 -0.3443 -0.2762
   84POPC  H13A11130   6.581   3.613   6.397  0.4678  1.6063  1.4845
   84POPC  H13B11131   6.704   3.534   6.483 -0.6398  0.8311  0.8742
   84POPC  H13C11132   6.725   3.701   6.414 -0.1149 -0.0213 -1.3587
   84POPC   C1411126   6.885   3.524   6.282  0.1799  0.4079 -0.0776
   84POPC  H14A11133   6.917   3.505   6.181 -2.3591  1.3231 -1.1043
   84POPC  H14B11134   6.925   3.624   6.290 -0.5785  0.7852 -0.9136
   84POPC  H14C11135   6.926   3.447   6.346 -0.6282 -0.7544 -0.9427
   84POPC   C1511127   6.701   3.605   6.158 -0.2486 -0.3178 -0.0061
   84POPC  H15A11136   6.749   3.700   6.175  3.5913 -2.6402  3.1271
   84POPC  H15B11137   6.594   3.612   6.140 -0.5699  0.8188  2.1317
   84POPC  H15C11138   6.739   3.557   6.069 -0.4754  0.6680 -0.6489
   84POPC   C1111139   6.701   3.292   6.165 -0.2135 -0.0773  0.4609
   84POPC  H11A11140   6.683   3.335   6.064  0.9077  1.8276  1.0507
   84POPC  H11B11141   6.631   3.206   6.175  1.1071 -1.1857  0.3071
   84POPC     P11142   6.875   3.103   6.217  0.1952  0.2170 -0.1473
   84POPC   O1311143   6.790   3.003   6.150  0.1320 -0.3492  0.7617
   84POPC   O1411144   6.890   3.089   6.364  0.2337  0.2223 -0.1504
   84POPC   O1211145   6.837   3.251   6.168 -0.1303  0.1455 -0.1176
   84POPC   O1111146   7.017   3.096   6.144  0.4059 -0.3782  0.3143
   84POPC    C111147   7.122   3.189   6.171  0.0942  0.1742 -0.3484
   84POPC    HA11148   7.188   3.155   6.254 -0.1559 -1.0456 -0.6412
   84POPC    HB11149   7.084   3.290   6.195  1.6655  0.6977 -0.0104
   84POPC    C211150   7.211   3.204   6.047  0.1659  0.8750 -0.2135
   84POPC    HS11151   7.282   3.290   6.054  2.1716 -0.6633 -1.0281
   84POPC   O2111152   7.125   3.235   5.937 -0.4047 -0.0056 -0.0196
   84POPC   C2111153   7.063   3.354   5.941 -0.4170  0.0036 -0.4678
   84POPC   O2211154   7.101   3.448   6.010 -0.2741 -0.1942 -0.2741
   84POPC   C2211155   6.929   3.355   5.870 -0.5296 -0.4036 -0.2618
   84POPC   H2R11156   6.892   3.459   5.877  3.6211  1.1116  0.8359
   84POPC   H2S11157   6.844   3.298   5.914 -1.6115  0.7643 -0.8030
   84POPC    C311158   7.300   3.082   6.016 -0.7121  0.2463 -0.2653
   84POPC    HX11159   7.235   2.992   6.021 -0.5917  0.2395  1.5835
   84POPC    HY11160   7.369   3.070   6.102 -0.0307  1.6838 -0.6012
   84POPC   O3111161   7.377   3.088   5.896 -0.1326 -0.2052  0.0797
   84POPC   C3111162   7.453   2.980   5.879 -0.3457 -0.2590 -0.5467
   84POPC   O3211163   7.445   2.879   5.946  0.0160  0.3652  0.4451
   84POPC   C3211164   7.564   3.016   5.781  0.1712 -0.6817 -0.1131
   84POPC   H2X11165   7.629   2.925   5.771 -0.6383 -1.0963 -1.7661
   84POPC   H2Y11166   7.611   3.103   5.832 -2.7633  0.5115  0.6408
   84POPC   C2311167   6.949   3.331   5.720  0.2139  0.3754 -0.2892
   84POPC   H3R11168   6.848   3.325   5.675 -0.3945 -4.1935  1.3514
   84POPC   H3S11169   6.981   3.225   5.711  1.1241  0.5974  0.2749
   84POPC   C2411170   7.032   3.422   5.629 -0.1105  0.5207 -0.4392
   84POPC   H4R11171   7.132   3.414   5.675 -0.8210  1.1867  1.2478
   84POPC   H4S11172   6.981   3.520   5.640 -1.7363 -0.5721  2.5220
   84POPC   C2511173   7.022   3.391   5.479  0.4200  0.1643 -0.4019
   84POPC   H5R11174   6.918   3.400   5.440  1.0535  0.8546 -1.9733
   84POPC   H5S11175   7.062   3.290   5.455 -2.1517 -0.6373 -1.5241
   84POPC   C2611176   7.098   3.493   5.394  0.2136  0.3346 -0.3838
   84POPC   H6R11177   7.205   3.483   5.422 -0.2250 -1.3685  0.7708
   84POPC   H6S11178   7.066   3.600   5.394 -0.0069  0.2692 -1.1210
   84POPC   C2711179   7.089   3.454   5.247  1.0688 -0.2864 -0.2747
   84POPC   H7R11180   6.984   3.431   5.218  0.8354 -0.3500  0.5962
   84POPC   H7S11181   7.129   3.351   5.232 -2.2675 -1.9262  1.5692
   84POPC   C2811182   7.151   3.564   5.160  0.2338  0.2339 -0.2122
   84POPC   H8R11183   7.255   3.574   5.198  0.7275 -3.6063 -0.3669
   84POPC   H8S11184   7.110   3.667   5.169  1.5809  0.6320  1.7625
   84POPC   C2911185   7.155   3.515   5.019 -0.5975 -0.1532 -0.1068
   84POPC   H9111186   7.197   3.415   5.000 -0.9209 -0.1945 -0.6358
   84POPC  C21011187   7.104   3.580   4.913 -0.4496 -0.4334 -0.3532
   84POPC  H10111188   7.101   3.526   4.818  1.2231  1.3388 -1.4345
   84POPC  C21111189   7.043   3.717   4.911 -0.7478 -0.5483  0.5729
   84POPC  H11R11190   7.124   3.790   4.935 -1.0135 -0.2139  0.4681
   84POPC  H11S11191   6.961   3.729   4.985 -0.7634 -0.7127  0.5819
   84POPC  C21211192   6.976   3.749   4.778  0.4995  0.2787  0.1321
   84POPC  H12R11193   6.891   3.679   4.760  2.0807 -1.3241 -1.3595
   84POPC  H12S11194   7.046   3.731   4.694 -1.5091 -0.8829 -1.3679
   84POPC  C21311195   6.929   3.894   4.766  0.5845  0.3040  0.1132
   84POPC  H13R11196   7.018   3.960   4.774  0.8864 -0.1125  0.1759
   84POPC  H13S11197   6.862   3.920   4.851 -1.2342  0.0200 -1.2276
   84POPC  C21411198   6.839   3.929   4.648  0.4359 -0.0341  0.1284
   84POPC  H14R11199   6.779   4.020   4.670 -0.2834 -0.5741  0.4317
   84POPC  H14S11200   6.768   3.852   4.610  0.2855  1.0460 -1.8252
   84POPC  C21511201   6.913   3.971   4.521 -0.0871  0.7181  0.0681
   84POPC  H15R11202   6.985   3.891   4.494 -1.7961 -0.0150 -2.4696
   84POPC  H15S11203   6.954   4.070   4.552 -3.0692  1.6689  1.1783
   84POPC  C21611204   6.827   3.998   4.397  0.0758 -0.6649 -0.3492
   84POPC  H16R11205   6.750   4.065   4.439 -1.3412 -2.3029 -0.2821
   84POPC  H16S11206   6.783   3.909   4.347  1.0060 -0.0597 -2.2702
   84POPC  C21711207   6.907   4.072   4.290  0.4759 -0.2320  0.2428
   84POPC  H17R11208   7.009   4.029   4.279  0.8752  0.6894  0.3620
   84POPC  H17S11209   6.927   4.180   4.307 -0.0340 -0.3000  1.3044
   84POPC  C21811210   6.832   4.052   4.158 -0.2713  0.1656  0.6075
   84POPC  H18R11211   6.833   3.944   4.134 -1.9703  0.0088  1.1676
   84POPC  H18S11212   6.879   4.106   4.073 -0.8181 -0.2209  0.0580
   84POPC  H18T11213   6.730   4.095   4.168 -0.5415 -0.4330  0.4439
   84POPC   C3311214   7.519   3.065   5.644  0.4700 -0.1487 -0.0206
   84POPC   H3X11215   7.415   3.026   5.635  0.8339 -0.4280 -4.3192
   84POPC   H3Y11216   7.579   3.006   5.572  1.5772 -1.2848  1.8029
   84POPC   C3411217   7.524   3.218   5.633  0.2095 -0.1188  0.2537
   84POPC   H4X11218   7.635   3.230   5.638 -0.0046  2.1399  0.0437
   84POPC   H4Y11219   7.471   3.273   5.714 -0.4362 -1.5653  0.8355
   84POPC   C3511220   7.459   3.259   5.501  0.2982 -0.3724  0.1303
   84POPC   H5X11221   7.404   3.355   5.511  0.3235 -0.2923 -0.4773
   84POPC   H5Y11222   7.387   3.187   5.457 -0.8467  0.8545 -0.0367
   84POPC   C3611223   7.555   3.286   5.384 -0.3802  0.8004 -0.1642
   84POPC   H6X11224   7.589   3.185   5.354 -0.0370  0.2780  1.8555
   84POPC   H6Y11225   7.640   3.346   5.422  0.7310 -0.7224 -0.1901
   84POPC   C3711226   7.478   3.349   5.268 -0.9182  0.2344 -0.1171
   84POPC   H7X11227   7.442   3.448   5.304 -0.2775 -0.1878  1.7152
   84POPC   H7Y11228   7.392   3.279   5.253  0.1048 -0.3153 -3.7068
   84POPC   C3811229   7.565   3.364   5.143 -0.1525 -0.2408  0.3584
   84POPC   H8X11230   7.615   3.267   5.125  1.4233  1.1660 -3.1183
   84POPC   H8Y11231   7.637   3.447   5.158 -0.2794  0.0207 -0.4636
   84POPC   C3911232   7.482   3.400   5.020  0.3898  0.9687  0.3395
   84POPC   H9X11233   7.414   3.486   5.038  1.1443  1.5063  0.6460
   84POPC   H9Y11234   7.419   3.312   4.996  1.4540  0.4464 -0.5914
   84POPC  C31011235   7.558   3.423   4.889 -0.1040  0.1033 -0.1003
   84POPC  H10X11236   7.607   3.332   4.848 -2.3777 -0.8357 -0.8444
   84POPC  H10Y11237   7.640   3.494   4.910  0.2584  0.0515 -1.3104
   84POPC  C31111238   7.461   3.476   4.783  0.0006  0.4545 -0.0176
   84POPC  H11X11239   7.394   3.546   4.839  1.9362  0.4763  2.3830
   84POPC  H11Y11240   7.402   3.392   4.743 -2.7810  2.3269 -0.0040
   84POPC  C31211241   7.542   3.555   4.680  0.7088  0.6056  0.6505
   84POPC  H12X11242   7.603   3.476   4.629  1.5542  1.6834 -0.0283
   84POPC  H12Y11243   7.601   3.639   4.721  1.5295 -0.1857  1.1278
   84POPC  C31311244   7.451   3.605   4.568  0.2569  0.1375  0.8084
   84POPC  H13X11245   7.367   3.537   4.544  1.0173 -0.7109  0.4806
   84POPC  H13Y11246   7.518   3.615   4.480  0.7226 -1.4219  0.9701
   84POPC  C31411247   7.394   3.740   4.611  0.1300  0.2993  0.1382
   84POPC  H14X11248   7.471   3.820   4.607 -0.0924  0.5539  0.9417
   84POPC  H14Y11249   7.355   3.735   4.715  0.0673 -1.2585  0.0592
   84POPC  C31511250   7.274   3.792   4.532 -0.3730 -0.5296  0.3500
   84POPC  H15X11251   7.243   3.886   4.583 -2.3709 -1.4521  0.8766
   84POPC  H15Y11252   7.186   3.730   4.561 -0.7741 -0.3679 -0.4947
   84POPC  C31611253   7.305   3.826   4.386 -0.6260 -0.1178  0.3905
   84POPC  H16X11254   7.232   3.896   4.340  1.5453  2.1768  0.3473
   84POPC  H16Y11255   7.320   3.738   4.320 -1.9961 -3.1487  3.9163
   84POPC  H16Z11256   7.401   3.882   4.378  0.6676 -1.6643  3.7678
   85POPC     N11257   0.853   2.753   6.315 -0.1791  0.2126  0.2287
   85POPC   C1211258   0.714   2.812   6.306 -0.0777  0.3930 -0.1337
   85POPC  H12A11262   0.717   2.919   6.317  0.4754  0.3891 -0.2273
   85POPC  H12B11263   0.662   2.784   6.396  0.4442 -1.3188 -0.3513
   85POPC   C1311259   0.942   2.820   6.213  0.1252 -0.4113  0.0863
   85POPC  H13A11264   0.941   2.927   6.229  0.6135 -0.4966  0.7210
   85POPC  H13B11265   1.045   2.791   6.228  0.5243  0.7936 -0.3228
   85POPC  H13C11266   0.916   2.807   6.109 -2.5730  2.5703  0.3105
   85POPC   C1411260   0.912   2.779   6.452  0.2957  0.6132 -0.0513
   85POPC  H14A11267   0.850   2.729   6.524 -0.9401  0.2017 -1.3883
   85POPC  H14B11268   1.010   2.733   6.443 -0.9530 -2.1112 -0.2401
   85POPC  H14C11269   0.923   2.884   6.474  1.1473  0.3104  1.0232
   85POPC   C1511261   0.853   2.605   6.285 -0.4073  0.1000  0.7579
   85POPC  H15A11270   0.954   2.575   6.311 -0.0938  0.2447 -0.2430
   85POPC  H15B11271   0.846   2.584   6.179  1.8003  1.3519  0.3195
   85POPC  H15C11272   0.793   2.553   6.357  0.8358 -0.2528  1.5531
   85POPC   C1111273   0.625   2.775   6.187 -0.1178 -0.2406  0.0931
   85POPC  H11A11274   0.537   2.842   6.195 -1.3446 -1.6381 -1.2339
   85POPC  H11B11275   0.575   2.676   6.199  1.0685 -0.9347 -0.6688
   85POPC     P11276   0.619   2.875   5.945  0.1345  0.2033  0.1095
   85POPC   O1311277   0.668   3.014   5.955  0.1427  0.2200 -0.1481
   85POPC   O1411278   0.474   2.852   5.954  0.0978  0.2689 -0.3012
   85POPC   O1211279   0.689   2.788   6.060 -0.0621  0.1100  0.1590
   85POPC   O1111280   0.668   2.824   5.801 -0.3893 -0.0443  0.0204
   85POPC    C111281   0.806   2.846   5.770 -0.3607 -0.5677 -0.2349
   85POPC    HA11282   0.861   2.754   5.742 -0.5421 -0.9561  0.6482
   85POPC    HB11283   0.865   2.872   5.861 -0.3900  0.2727 -0.4498
   85POPC    C211284   0.823   2.949   5.657  0.2021 -0.2497  0.1356
   85POPC    HS11285   0.787   3.044   5.701 -2.6532  0.2511 -3.0965
   85POPC   O2111286   0.749   2.907   5.542  0.4178 -0.2319 -0.0086
   85POPC   C2111287   0.630   2.967   5.539  0.5964  0.1084 -0.4562
   85POPC   O2211288   0.590   3.048   5.621 -0.1103 -0.4934 -0.1958
   85POPC   C2211289   0.535   2.903   5.438  0.1988 -0.0024 -0.0166
   85POPC   H2R11290   0.479   2.823   5.491 -0.9214  1.0331  0.3834
   85POPC   H2S11291   0.592   2.852   5.357 -2.9644 -0.2859 -2.1392
   85POPC    C311292   0.971   2.969   5.621 -0.1198  0.7251 -0.6715
   85POPC    HX11293   1.027   3.020   5.702 -0.7889  2.2814 -1.1754
   85POPC    HY11294   0.968   3.041   5.537  0.2378  1.4335 -0.0761
   85POPC   O3111295   1.038   2.851   5.576  0.5970  0.7463  0.3258
   85POPC   C3111296   1.114   2.788   5.666  0.8530  0.3088 -0.1914
   85POPC   O3211297   1.102   2.810   5.785  0.2279 -0.2435 -0.1502
   85POPC   C3211298   1.179   2.671   5.594 -0.0148  0.2087 -0.8206
   85POPC   H2X11299   1.093   2.618   5.548 -0.7648  0.7827 -0.0864
   85POPC   H2Y11300   1.224   2.596   5.663 -1.9161 -0.0297  0.2024
   85POPC   C2311301   0.424   2.995   5.387  0.1990 -0.2083 -0.3853
   85POPC   H3R11302   0.383   3.050   5.474  4.0998 -2.0917  2.8014
   85POPC   H3S11303   0.341   2.925   5.363  0.1289 -0.8932  1.7602
   85POPC   C2411304   0.464   3.080   5.266 -0.2346  0.5744  0.0181
   85POPC   H4R11305   0.487   3.012   5.181 -0.4736  1.9334 -1.1410
   85POPC   H4S11306   0.553   3.134   5.305  0.5786 -1.6297  1.3593
   85POPC   C2511307   0.351   3.178   5.238 -0.3172  0.5073  0.1148
   85POPC   H5R11308   0.346   3.251   5.322 -1.5351  1.6605 -0.9174
   85POPC   H5S11309   0.251   3.129   5.232 -0.6660  1.3257 -0.9747
   85POPC   C2611310   0.372   3.264   5.113  0.2027 -0.5915 -0.5511
   85POPC   H6R11311   0.292   3.341   5.116  0.9242  0.1053  1.3699
   85POPC   H6S11312   0.362   3.213   5.014 -2.8054 -0.2805 -0.4468
   85POPC   C2711313   0.505   3.339   5.109 -0.4124  0.5070 -0.6071
   85POPC   H7R11314   0.583   3.260   5.110  2.3740  3.0934  2.9568
   85POPC   H7S11315   0.514   3.400   5.202 -0.4659 -0.0579 -0.2254
   85POPC   C2811316   0.522   3.431   4.988 -0.4263  0.1337 -0.8932
   85POPC   H8R11317   0.558   3.372   4.901  0.1881  0.5046 -0.8909
   85POPC   H8S11318   0.607   3.498   5.012 -0.2173 -0.5139  0.2147
   85POPC   C2911319   0.414   3.530   4.957  0.3079  1.0832 -0.4503
   85POPC   H9111320   0.384   3.591   5.044  0.0535  2.3847 -1.4304
   85POPC  C21011321   0.346   3.564   4.846 -0.3570  0.0832 -0.3507
   85POPC  H10111322   0.281   3.652   4.841  0.6275  0.9225  1.0592
   85POPC  C21111323   0.367   3.513   4.706 -0.2675  0.1781 -0.3725
   85POPC  H11R11324   0.460   3.453   4.703 -0.7628 -0.5362 -1.9316
   85POPC  H11S11325   0.390   3.587   4.627  3.6633  1.8747  2.1947
   85POPC  C21211326   0.245   3.433   4.659 -0.1903  0.0084 -0.2856
   85POPC  H12R11327   0.220   3.366   4.744 -0.9311 -0.7235 -1.0724
   85POPC  H12S11328   0.265   3.369   4.570  1.0205  0.0244 -0.0276
   85POPC  C21311329   0.138   3.533   4.614 -0.3985  0.1357  0.4848
   85POPC  H13R11330   0.157   3.632   4.660 -0.2980 -0.1889  1.1499
   85POPC  H13S11331   0.038   3.494   4.643 -0.9427 -0.6581 -2.2730
   85POPC  C21411332   0.150   3.557   4.463  0.0695 -0.4863  0.4194
   85POPC  H14R11333   0.128   3.468   4.401  0.5524  0.9911 -1.9317
   85POPC  H14S11334   0.260   3.563   4.448  0.2159 -1.9120  0.8589
   85POPC  C21511335   0.078   3.683   4.414  0.1113 -0.5295  0.2499
   85POPC  H15R11336   0.095   3.691   4.304  1.4615  1.4902  0.5763
   85POPC  H15S11337   0.116   3.780   4.451 -0.8228  0.4406 -1.2571
   85POPC  C21611338   7.890   3.678   4.444  0.0651 -0.6397  0.2080
   85POPC  H16R11339   7.856   3.781   4.468  0.3810 -0.6078  0.5217
   85POPC  H16S11340   7.862   3.619   4.533 -0.1824  0.3501  0.8002
   85POPC  C21711341   7.800   3.633   4.328  0.1713 -0.2313 -0.0351
   85POPC  H17R11342   7.696   3.620   4.363  0.2794  1.3193  0.9299
   85POPC  H17S11343   7.835   3.538   4.282 -0.6468 -1.1870  1.2911
   85POPC  C21811344   7.795   3.745   4.224 -0.4116  0.4482  0.7153
   85POPC  H18R11345   7.894   3.795   4.216  0.1393 -0.5568  1.0810
   85POPC  H18S11346   7.723   3.821   4.260  1.2136  2.8342 -0.9460
   85POPC  H18T11347   7.758   3.700   4.129 -0.3927  0.5082  0.6803
   85POPC   C3311348   1.277   2.705   5.482  0.7369 -0.1348 -0.2698
   85POPC   H3X11349   1.375   2.741   5.522 -0.5985  3.3838 -0.0147
   85POPC   H3Y11350   1.234   2.792   5.428 -1.3553 -1.2369 -0.4305
   85POPC   C3411351   1.300   2.594   5.379  0.2028  0.0586 -0.5980
   85POPC   H4X11352   1.200   2.567   5.338 -0.5732 -0.7961  1.7590
   85POPC   H4Y11353   1.343   2.508   5.436  1.3783  1.6696  0.9930
   85POPC   C3511354   1.389   2.649   5.268  0.2071 -0.1674 -0.7064
   85POPC   H5X11355   1.472   2.705   5.314 -0.5165  0.2445  0.1006
   85POPC   H5Y11356   1.322   2.719   5.213  0.7401  0.0859 -1.0330
   85POPC   C3611357   1.434   2.540   5.170  0.5343 -0.3583 -0.3445
   85POPC   H6X11358   1.346   2.481   5.136  0.6877  0.4987 -2.3462
   85POPC   H6Y11359   1.505   2.482   5.232 -0.4715 -1.1663  0.0493
   85POPC   C3711360   1.508   2.598   5.049  0.3069  0.6209 -0.0183
   85POPC   H7X11361   1.586   2.670   5.081 -0.4672  0.5887  2.0056
   85POPC   H7Y11362   1.436   2.661   4.994 -0.1215  0.1722  0.0255
   85POPC   C3811363   1.547   2.487   4.951  0.1185  0.2528  0.3245
   85POPC   H8X11364   1.459   2.423   4.930 -1.2426  2.4327 -0.8264
   85POPC   H8Y11365   1.622   2.418   4.997 -0.2332  0.2393  0.8853
   85POPC   C3911366   1.611   2.542   4.824 -0.4928 -0.0871 -0.1310
   85POPC   H9X11367   1.706   2.590   4.858 -1.4740  0.9618  1.1660
   85POPC   H9Y11368   1.547   2.621   4.779  1.8364  1.9539  0.0326
   85POPC  C31011369   1.635   2.438   4.714  0.0444  0.5744 -0.6462
   85POPC  H10X11370   1.684   2.348   4.758  1.4856  1.3276 -0.7061
   85POPC  H10Y11371   1.708   2.477   4.640  1.0006 -1.1697 -0.6522
   85POPC  C31111372   1.511   2.408   4.630 -0.2039 -0.1718 -0.0279
   85POPC  H11X11373   1.438   2.369   4.703  1.7490  0.3792  2.2607
   85POPC  H11Y11374   1.545   2.331   4.558 -0.9598 -0.2525 -0.3084
   85POPC  C31211375   1.461   2.526   4.545 -0.0952 -0.0883  0.0236
   85POPC  H12X11376   1.546   2.571   4.489 -1.8037 -1.5230 -3.8740
   85POPC  H12Y11377   1.426   2.598   4.622  0.7249 -0.2810  0.5864
   85POPC  C31311378   1.357   2.483   4.441 -0.0823  0.3543 -0.1743
   85POPC  H13X11379   1.264   2.440   4.483 -1.4379  2.0232 -1.4416
   85POPC  H13Y11380   1.396   2.404   4.373 -1.5432 -1.7379  1.3568
   85POPC  C31411381   1.332   2.602   4.349  1.2233  0.4202 -0.4554
   85POPC  H14X11382   1.425   2.615   4.289  0.7040  2.0757 -0.9214
   85POPC  H14Y11383   1.311   2.701   4.394 -0.4427  0.9225 -2.2904
   85POPC  C31511384   1.204   2.573   4.271  0.6757  0.8157  0.2907
   85POPC  H15X11385   1.127   2.566   4.351  0.1938  3.4980  0.1136
   85POPC  H15Y11386   1.226   2.478   4.217  0.4016  1.5597 -1.1392
   85POPC  C31611387   1.162   2.678   4.169  0.0756  0.2684 -0.0319
   85POPC  H16X11388   1.159   2.779   4.215  0.3285 -0.0408  0.6655
   85POPC  H16Y11389   1.057   2.661   4.137 -1.1685  2.2060  2.8388
   85POPC  H16Z11390   1.240   2.681   4.090  1.6135 -1.9543  1.3450
   86POPC     N11391   6.701   2.211   5.987 -0.1180 -0.2182 -0.4868
   86POPC   C1211392   6.837   2.246   6.044 -0.2629  0.1137 -0.3443
   86POPC  H12A11396   6.898   2.157   6.041 -1.4901 -0.7936  0.8498
   86POPC  H12B11397   6.815   2.275   6.145 -1.1799 -2.4942  0.2408
   86POPC   C1311393   6.717   2.170   5.843  0.1485 -0.2607 -0.4462
   86POPC  H13A11398   6.807   2.111   5.832  0.1544 -0.2292 -0.5735
   86POPC  H13B11399   6.629   2.112   5.815 -1.9835  2.2961  0.7393
   86POPC  H13C11400   6.725   2.259   5.782  1.0818 -1.3129 -1.8990
   86POPC   C1411394   6.653   2.090   6.064  0.0581 -0.1916 -0.3325
   86POPC  H14A11401   6.635   2.121   6.166  0.9895 -0.6542 -0.0234
   86POPC  H14B11402   6.558   2.055   6.027  0.2876 -2.8408  1.3946
   86POPC  H14C11403   6.735   2.019   6.058 -1.7631 -2.3545 -0.2827
   86POPC   C1511395   6.592   2.313   6.003 -0.6973 -0.9303  0.1562
   86POPC  H15A11404   6.507   2.274   5.949 -1.3194 -0.2412  0.6235
   86POPC  H15B11405   6.613   2.402   5.946  1.5754 -2.1549 -0.9971
   86POPC  H15C11406   6.555   2.340   6.101 -0.8747  0.5685 -0.3044
   86POPC   C1111407   6.920   2.339   5.955 -0.1131  0.0319 -0.2896
   86POPC  H11A11408   6.938   2.282   5.860 -0.0485  1.2862 -1.0367
   86POPC  H11B11409   7.009   2.356   6.019 -1.6849  4.0512  0.9382
   86POPC     P11410   6.883   2.580   6.024  0.0492  0.4675 -0.2578
   86POPC   O1311411   6.862   2.529   6.161 -0.3306  0.0848 -0.4580
   86POPC   O1411412   6.806   2.703   5.994 -0.8620 -0.2196 -0.7544
   86POPC   O1211413   6.848   2.459   5.926 -0.3511  0.0552  0.3896
   86POPC   O1111414   7.038   2.616   6.004  0.1153  0.3090 -0.0225
   86POPC    C111415   7.069   2.747   5.959  0.4124  0.3888  0.4163
   86POPC    HA11416   7.177   2.757   5.983  0.3779  2.2015 -0.0893
   86POPC    HB11417   7.015   2.826   6.016  2.4159 -0.4354  3.6045
   86POPC    C211418   7.035   2.767   5.810  0.4609 -0.0512  0.3480
   86POPC    HS11419   6.929   2.798   5.801  1.1168  1.4630 -3.1068
   86POPC   O2111420   7.063   2.642   5.746 -0.4488 -0.2700  0.3740
   86POPC   C2111421   6.979   2.615   5.646  0.0725  0.0636 -0.1574
   86POPC   O2211422   6.895   2.693   5.602 -0.0118  0.0277 -0.0616
   86POPC   C2211423   7.026   2.488   5.576  0.3538  0.1264 -0.0834
   86POPC   H2R11424   6.939   2.422   5.556 -0.3249  1.1062 -0.4184
   86POPC   H2S11425   7.095   2.444   5.651  1.1786  0.4457 -0.6525
   86POPC    C311426   7.121   2.873   5.739 -0.2407  0.3437  0.0934
   86POPC    HX11427   7.227   2.869   5.772  0.1153 -0.4430 -1.1165
   86POPC    HY11428   7.086   2.974   5.771 -0.4984  0.0701  0.6969
   86POPC   O3111429   7.126   2.859   5.597  0.0634  0.4235  0.0968
   86POPC   C3111430   7.023   2.921   5.540 -0.0108  0.1088 -0.1133
   86POPC   O3211431   6.934   2.981   5.598  0.5649  0.4644  0.4142
   86POPC   C3211432   7.034   2.930   5.389 -0.3402  0.3042 -0.1247
   86POPC   H2X11433   7.034   3.039   5.367  1.2495  0.2116 -0.6575
   86POPC   H2Y11434   6.956   2.872   5.334  0.7544  0.5548 -1.9968
   86POPC   C2311435   7.089   2.539   5.447  0.5458  0.3112  0.0819
   86POPC   H3R11436   7.178   2.599   5.476  1.1214 -0.4569 -0.1105
   86POPC   H3S11437   7.020   2.609   5.393 -1.5190 -1.0158  0.9465
   86POPC   C2411438   7.112   2.430   5.342  0.1523  0.3326 -0.0285
   86POPC   H4R11439   7.022   2.369   5.317  0.4446 -0.0195 -0.2284
   86POPC   H4S11440   7.186   2.354   5.374 -0.2739 -0.6631 -1.3835
   86POPC   C2511441   7.179   2.492   5.220  0.1993  0.7667  0.2181
   86POPC   H5R11442   7.284   2.511   5.253  0.5035  0.6466 -0.6608
   86POPC   H5S11443   7.122   2.583   5.194 -0.4408  0.6713  1.2837
   86POPC   C2611444   7.165   2.407   5.094  0.1557  0.4078  0.4628
   86POPC   H6R11445   7.063   2.365   5.088  1.1746 -1.9167 -1.3897
   86POPC   H6S11446   7.236   2.322   5.091 -0.0355  0.1622  2.6997
   86POPC   C2711447   7.190   2.501   4.975  0.2336 -0.3104 -0.0928
   86POPC   H7R11448   7.294   2.540   4.984  0.2631 -0.5864  0.8788
   86POPC   H7S11449   7.114   2.582   4.973  0.6749  0.1178  0.4155
   86POPC   C2811450   7.169   2.439   4.837 -0.0981  0.7041 -0.4994
   86POPC   H8R11451   7.167   2.515   4.755 -1.2851  0.0554 -1.0913
   86POPC   H8S11452   7.066   2.396   4.835  0.6739 -1.4111  2.2770
   86POPC   C2911453   7.268   2.331   4.804 -0.5050  0.2600 -0.2736
   86POPC   H9111454   7.260   2.228   4.842 -0.4737 -0.3723 -1.9427
   86POPC  C21011455   7.373   2.353   4.724 -0.3835 -0.3764 -0.2915
   86POPC  H10111456   7.435   2.273   4.681 -0.7729 -0.1407 -1.3044
   86POPC  C21111457   7.403   2.488   4.664  0.4299 -0.4104  0.0294
   86POPC  H11R11458   7.423   2.553   4.751  0.3467  1.5497 -1.3789
   86POPC  H11S11459   7.316   2.535   4.613  0.0053 -2.0930 -0.8541
   86POPC  C21211460   7.508   2.494   4.553  0.5258  0.7824  0.1766
   86POPC  H12R11461   7.488   2.411   4.482  2.9799  0.9064 -0.7180
   86POPC  H12S11462   7.606   2.481   4.604  0.5960 -0.5987 -0.2725
   86POPC  C21311463   7.517   2.623   4.471 -0.3371  0.4466 -0.4530
   86POPC  H13R11464   7.615   2.671   4.493  0.4937 -0.2777 -2.4653
   86POPC  H13S11465   7.429   2.686   4.498  0.6748  0.6854  2.5107
   86POPC  C21411466   7.517   2.599   4.320  0.0271 -0.5155 -0.3054
   86POPC  H14R11467   7.515   2.694   4.263 -2.8261 -0.7848 -0.7255
   86POPC  H14S11468   7.424   2.540   4.301  0.9928 -2.6850  1.4408
   86POPC  C21511469   7.634   2.519   4.263  0.6226  0.3150 -0.2470
   86POPC  H15R11470   7.618   2.513   4.153 -2.1932  3.2682 -0.0596
   86POPC  H15S11471   7.643   2.418   4.309 -0.3865 -0.1601 -1.0955
   86POPC  C21611472   7.768   2.591   4.285  0.2877  0.7475  0.3992
   86POPC  H16R11473   7.786   2.620   4.391 -0.0928 -1.2888  1.0457
   86POPC  H16S11474   7.784   2.684   4.228  1.2561  1.2727  1.5185
   86POPC  C21711475   7.885   2.500   4.248  0.1983  0.8508 -0.1340
   86POPC  H17R11476   0.006   2.546   4.306 -1.6522  0.6324  2.8362
   86POPC  H17S11477   7.872   2.394   4.278 -1.2271  1.3902  1.1957
   86POPC  C21811478   7.928   2.505   4.101  0.0960  0.0856 -0.1938
   86POPC  H18R11479   7.837   2.512   4.037 -1.8090 -1.0193  2.3052
   86POPC  H18S11480   0.017   2.413   4.068 -0.9436 -0.3261 -0.7452
   86POPC  H18T11481   0.031   2.591   4.073  0.1170  0.4492  0.8351
   86POPC   C3311482   7.173   2.893   5.336 -0.3237  0.0664  0.0877
   86POPC   H3X11483   7.189   2.783   5.337 -0.4469  0.0380 -0.5862
   86POPC   H3Y11484   7.249   2.936   5.404 -1.4791  1.8744  0.2580
   86POPC   C3411485   7.194   2.945   5.194 -0.0608 -0.4439 -0.0612
   86POPC   H4X11486   7.186   3.055   5.183 -2.3360 -0.5302  0.4326
   86POPC   H4Y11487   7.119   2.899   5.127  0.3628  1.1858 -1.6894
   86POPC   C3511488   7.327   2.899   5.135 -0.0483 -0.1475 -0.2612
   86POPC   H5X11489   7.348   2.791   5.144  3.0576  0.5475  1.4120
   86POPC   H5Y11490   7.406   2.938   5.203 -0.6313  0.5532  0.0162
   86POPC   C3611491   7.343   2.966   4.998  0.1163  0.1754 -0.0867
   86POPC   H6X11492   7.321   3.074   5.006 -0.0507  0.0088  1.8636
   86POPC   H6Y11493   7.270   2.918   4.929 -2.5372  0.9441  2.1071
   86POPC   C3711494   7.473   2.937   4.922  0.2446  0.0068  0.1966
   86POPC   H7X11495   7.513   2.835   4.938  0.8125  0.1209 -0.4766
   86POPC   H7Y11496   7.553   3.010   4.947 -1.2392  1.3528  1.1813
   86POPC   C3811497   7.462   2.933   4.769 -0.0807 -0.1765  0.2240
   86POPC   H8X11498   7.379   2.862   4.747 -0.7903  0.3452  1.1666
   86POPC   H8Y11499   7.546   2.887   4.713 -0.1409 -2.1950  1.7568
   86POPC   C3911500   7.435   3.070   4.705  0.4166  0.0353  0.4627
   86POPC   H9X11501   7.525   3.134   4.709  0.8829 -0.5729 -0.3031
   86POPC   H9Y11502   7.347   3.117   4.754 -0.3536  0.6891 -1.5138
   86POPC  C31011503   7.411   3.044   4.557  1.0688  0.5753  0.2605
   86POPC  H10X11504   7.322   2.977   4.554  1.3920 -0.0365  3.0424
   86POPC  H10Y11505   7.500   2.998   4.509 -0.4418 -0.4237 -1.7070
   86POPC  C31111506   7.360   3.166   4.479  0.8418  0.1631 -0.2470
   86POPC  H11X11507   7.445   3.238   4.483  1.0260 -0.0719  0.1583
   86POPC  H11Y11508   7.269   3.199   4.533  0.9604 -1.5168  1.0408
   86POPC  C31211509   7.324   3.124   4.337  0.4329 -0.2063 -0.0360
   86POPC  H12X11510   7.221   3.148   4.301  0.7057  2.1995  0.6642
   86POPC  H12Y11511   7.331   3.014   4.322 -2.5315 -0.0776 -2.7714
   86POPC  C31311512   7.415   3.199   4.240  0.9141 -0.3340  0.3157
   86POPC  H13X11513   7.522   3.194   4.267  0.7052 -1.3239  0.9713
   86POPC  H13Y11514   7.382   3.305   4.243  0.0260 -0.6292  1.0171
   86POPC  C31411515   7.404   3.145   4.097  0.5253  0.0367  0.2000
   86POPC  H14X11516   7.300   3.148   4.060  0.8630  0.4018 -0.7514
   86POPC  H14Y11517   7.428   3.036   4.102 -1.0647 -0.4556 -2.2862
   86POPC  C31511518   7.497   3.217   3.999 -0.1561  0.0931 -0.4070
   86POPC  H15X11519   7.465   3.189   3.897  2.4883 -0.5765 -1.0922
   86POPC  H15Y11520   7.607   3.207   4.011 -0.2626 -0.3240  0.2556
   86POPC  C31611521   7.457   3.363   4.019  0.1145  0.0757  0.2732
   86POPC  H16X11522   7.495   3.416   4.110 -1.3377  0.0020  0.9546
   86POPC  H16Y11523   7.347   3.371   4.035  0.3171  0.9542  1.3749
   86POPC  H16Z11524   7.498   3.425   3.937  2.5328 -1.5165  0.2572
   87POPC     N11525   2.868   1.082   6.000  0.4718  0.3349 -0.3861
   87POPC   C1211526   2.914   0.948   6.052  0.3035  0.2108 -0.5554
   87POPC  H12A11530   2.828   0.886   6.072  0.0088  0.9324  0.4862
   87POPC  H12B11531   2.953   0.968   6.151 -0.1961 -1.9532  0.1153
   87POPC   C1311527   2.986   1.157   5.945  0.4286  0.2432 -0.6031
   87POPC  H13A11532   3.020   1.118   5.850  0.3105  0.7488 -0.8598
   87POPC  H13B11533   2.960   1.262   5.934  0.0958  0.1272 -0.9317
   87POPC  H13C11534   3.072   1.153   6.010  0.1940  1.1819 -0.2196
   87POPC   C1411528   2.758   1.066   5.898  0.3396 -0.1425 -0.1714
   87POPC  H14A11535   2.788   1.000   5.819  0.8853  0.3216 -0.3553
   87POPC  H14B11536   2.673   1.028   5.953  0.7828  0.0916  0.6984
   87POPC  H14C11537   2.738   1.166   5.861 -0.3436  0.3911  1.5505
   87POPC   C1511529   2.817   1.163   6.117  0.3171 -0.2610 -0.0355
   87POPC  H15A11538   2.710   1.156   6.129  0.1402  3.4000  1.1963
   87POPC  H15B11539   2.834   1.269   6.105 -1.9239  0.3169  1.4559
   87POPC  H15C11540   2.856   1.133   6.213  1.8321 -1.3404 -0.9739
   87POPC   C1111541   3.021   0.876   5.970  0.6862  0.4751 -0.2937
   87POPC  H11A11542   3.035   0.774   6.013  2.1483 -0.1771 -2.2201
   87POPC  H11B11543   3.114   0.936   5.978 -0.3247  2.0170  0.0422
   87POPC     P11544   3.111   0.798   5.756 -0.4054 -0.5244 -0.2041
   87POPC   O1311545   3.138   0.669   5.824  0.0122 -0.3047  0.0435
   87POPC   O1411546   3.210   0.907   5.749 -0.8548 -0.1202 -0.3009
   87POPC   O1211547   2.986   0.863   5.832 -0.0894 -0.0963 -0.0479
   87POPC   O1111548   3.043   0.779   5.612 -0.0833  0.0692 -0.4336
   87POPC    C111549   2.911   0.725   5.617 -0.0607  0.0476 -0.0853
   87POPC    HA11550   2.854   0.760   5.529  0.9716 -1.6053 -1.4506
   87POPC    HB11551   2.850   0.764   5.701  1.7812  0.5079  1.0815
   87POPC    C211552   2.908   0.571   5.620  0.1510  0.0448 -0.0203
   87POPC    HS11553   2.926   0.523   5.719  0.9921  2.1763  0.9000
   87POPC   O2111554   3.017   0.536   5.534 -0.1790  0.2875 -0.5340
   87POPC   C2111555   3.054   0.409   5.550  0.3219  0.4016 -0.8020
   87POPC   O2211556   2.998   0.331   5.624 -0.0420  0.5445 -0.9235
   87POPC   C2211557   3.186   0.382   5.477  0.5721  0.1740 -0.2629
   87POPC   H2R11558   3.267   0.444   5.522  1.6773 -0.2866 -1.6036
   87POPC   H2S11559   3.160   0.412   5.374 -3.6097 -0.4793  0.4729
   87POPC    C311560   2.773   0.515   5.572  0.0499  0.0667  0.2348
   87POPC    HX11561   2.697   0.548   5.646 -1.2791 -0.1900 -0.9966
   87POPC    HY11562   2.771   0.404   5.580  0.0973  0.2876  4.1545
   87POPC   O3111563   2.741   0.561   5.441 -0.0188 -0.0076  0.2265
   87POPC   C3111564   2.760   0.468   5.347 -0.2542 -0.1252  0.2935
   87POPC   O3211565   2.815   0.360   5.361 -0.0370 -0.0018  0.3969
   87POPC   C3211566   2.719   0.534   5.216 -0.2281  0.2124  0.4545
   87POPC   H2X11567   2.618   0.580   5.227 -0.1181  0.0624  2.2963
   87POPC   H2Y11568   2.727   0.466   5.128 -0.1416  3.0919 -1.8323
   87POPC   C2311569   3.208   0.232   5.496  0.0863  0.1612  0.2480
   87POPC   H3R11570   3.117   0.174   5.470 -0.3905  0.8878  0.2772
   87POPC   H3S11571   3.244   0.199   5.596  0.9422 -2.1110 -0.7727
   87POPC   C2411572   3.321   0.178   5.408 -0.3004 -0.1488 -0.0553
   87POPC   H4R11573   3.416   0.227   5.438  1.0206 -3.2219  0.9753
   87POPC   H4S11574   3.296   0.205   5.303  1.0001 -0.7225 -0.5250
   87POPC   C2511575   3.338   0.026   5.420  0.0633 -0.1084 -0.0645
   87POPC   H5R11576   3.241   7.958   5.376  0.5062  0.0191 -1.1712
   87POPC   H5S11577   3.334   7.946   5.523 -0.7584 -1.5120 -0.6534
   87POPC   C2611578   3.455   7.928   5.341 -0.2138 -0.3849 -0.2957
   87POPC   H6R11579   3.547   7.953   5.397  0.3688  0.1875 -1.4999
   87POPC   H6S11580   3.461   0.011   5.240  0.3566 -1.6043 -0.8360
   87POPC   C2711581   3.429   7.778   5.329 -1.3350 -0.2259  0.0076
   87POPC   H7R11582   3.337   7.760   5.270 -0.4333 -1.8951 -0.9635
   87POPC   H7S11583   3.420   7.742   5.434 -0.6615  2.4005  0.9887
   87POPC   C2811584   3.528   7.688   5.253 -0.8788  0.0399  0.2811
   87POPC   H8R11585   3.473   7.591   5.245 -2.0342  0.8353 -1.8224
   87POPC   H8S11586   3.626   7.674   5.303 -1.2458 -1.1775  0.6729
   87POPC   C2911587   3.546   7.744   5.115 -0.6141  0.2227  0.3895
   87POPC   H9111588   3.617   7.827   5.123 -0.0949 -0.1119 -0.6338
   87POPC  C21011589   3.495   7.702   4.998  0.2046 -0.0198  0.1105
   87POPC  H10111590   3.515   7.746   4.899 -1.6747  1.2594  0.2569
   87POPC  C21111591   3.401   7.585   4.995 -0.4055  0.4634  0.1188
   87POPC  H11R11592   3.326   7.604   5.075 -0.8263 -0.9219  0.0729
   87POPC  H11S11593   3.445   7.491   5.036 -0.2171  1.1437  1.5040
   87POPC  C21211594   3.341   7.566   4.856 -0.1611  0.0468  0.0684
   87POPC  H12R11595   3.412   7.516   4.787  2.6224  0.7871  2.2966
   87POPC  H12S11596   3.301   7.664   4.822 -2.9632 -0.9386  0.4284
   87POPC  C21311597   3.212   7.484   4.856 -0.2691  0.2132  0.5259
   87POPC  H13R11598   3.148   7.521   4.938 -1.1226 -0.9841  0.4077
   87POPC  H13S11599   3.229   7.378   4.886 -0.7952 -0.1866 -0.5411
   87POPC  C21411600   3.129   7.488   4.727  0.4566 -0.9608  0.0075
   87POPC  H14R11601   3.199   7.478   4.641 -1.1632 -0.9461 -1.3360
   87POPC  H14S11602   3.091   7.592   4.715 -1.3769 -1.7007 -0.6975
   87POPC  C21511603   3.018   7.384   4.711 -0.0026 -0.5201  0.3069
   87POPC  H15R11604   3.075   7.289   4.719  2.0627  0.4382 -2.2401
   87POPC  H15S11605   2.977   7.387   4.608  1.5400  0.2289 -0.3175
   87POPC  C21611606   2.902   7.382   4.810 -0.2117 -0.5433  0.0598
   87POPC  H16R11607   2.854   7.482   4.798 -3.2221 -1.8595  0.5116
   87POPC  H16S11608   2.941   7.375   4.913  1.9953 -4.1610 -0.9348
   87POPC  C21711609   2.796   7.275   4.783 -0.6958  0.0421 -0.3786
   87POPC  H17R11610   2.837   7.174   4.807  0.7342  0.4385 -1.1352
   87POPC  H17S11611   2.772   7.272   4.675 -0.6762  1.3449 -0.4226
   87POPC  C21811612   2.672   7.289   4.872 -0.2377  0.1163  0.2511
   87POPC  H18R11613   2.700   7.299   4.979 -0.9834 -2.1903  0.6946
   87POPC  H18S11614   2.604   7.202   4.862  1.0540 -0.7297 -1.6395
   87POPC  H18T11615   2.606   7.374   4.845  0.9534  1.4223  1.3972
   87POPC   C3311616   2.823   0.637   5.173 -0.5554  0.2684 -0.2067
   87POPC   H3X11617   2.921   0.585   5.166 -0.1662  0.9541  0.0784
   87POPC   H3Y11618   2.824   0.716   5.252  1.3596 -1.8936  1.9953
   87POPC   C3411619   2.810   0.717   5.043  0.0042 -0.1042 -0.4928
   87POPC   H4X11620   2.794   0.640   4.964  1.7851 -0.1386 -0.8382
   87POPC   H4Y11621   2.903   0.772   5.021  0.5747 -0.4946  0.9152
   87POPC   C3511622   2.689   0.811   5.040 -0.0175 -0.1007  0.3226
   87POPC   H5X11623   2.596   0.756   5.064 -1.1671  1.5290 -0.2838
   87POPC   H5Y11624   2.688   0.851   4.936 -1.8576  1.2163  0.8281
   87POPC   C3611625   2.703   0.934   5.130  0.0007  0.0521  0.1136
   87POPC   H6X11626   2.752   0.905   5.225 -2.3805 -1.4377  0.9345
   87POPC   H6Y11627   2.604   0.975   5.161 -0.4814  0.3481 -1.7474
   87POPC   C3711628   2.785   1.043   5.061  0.5289 -0.2394  0.2777
   87POPC   H7X11629   2.711   1.106   5.007  1.6376  1.1293  0.3170
   87POPC   H7Y11630   2.853   1.003   4.984 -0.5982  0.5514 -1.1425
   87POPC   C3811631   2.857   1.138   5.158 -0.2209  0.5796  0.0438
   87POPC   H8X11632   2.933   1.082   5.216 -1.3853 -0.0491  0.9812
   87POPC   H8Y11633   2.781   1.158   5.236  0.2411  2.2691  0.0756
   87POPC   C3911634   2.920   1.266   5.102  0.7161  0.1077  0.0033
   87POPC   H9X11635   3.016   1.228   5.061  1.4379  1.1338  0.7018
   87POPC   H9Y11636   2.955   1.334   5.183 -2.8168  0.4329  1.3613
   87POPC  C31011637   2.839   1.344   4.998  0.0220 -0.5621  0.0369
   87POPC  H10X11638   2.819   1.287   4.905  0.8513  1.3673 -1.3415
   87POPC  H10Y11639   2.892   1.440   4.980 -0.0957 -0.3707  0.6898
   87POPC  C31111640   2.703   1.388   5.051  0.1801  0.5562 -0.4805
   87POPC  H11X11641   2.712   1.443   5.147 -2.6064 -1.0768  0.7861
   87POPC  H11Y11642   2.644   1.295   5.063  1.8090 -0.2980  1.0028
   87POPC  C31211643   2.643   1.481   4.945 -0.4115  0.6331 -0.0815
   87POPC  H12X11644   2.651   1.445   4.840 -0.7856 -3.6602  1.2950
   87POPC  H12Y11645   2.691   1.581   4.950 -0.3291  0.6229 -0.6224
   87POPC  C31311646   2.500   1.513   4.988 -0.6839 -0.3306 -0.2662
   87POPC  H13X11647   2.431   1.429   5.012  0.3444 -1.0650  0.1316
   87POPC  H13Y11648   2.445   1.558   4.902  0.1579  1.2056 -0.0194
   87POPC  C31411649   2.495   1.612   5.104 -0.1003 -0.8627  0.2122
   87POPC  H14X11650   2.541   1.713   5.093  3.3234 -2.5943 -2.0863
   87POPC  H14Y11651   2.535   1.568   5.198 -0.3499  0.4378  0.9431
   87POPC  C31511652   2.350   1.640   5.145  0.1799  0.4954  0.3108
   87POPC  H15X11653   2.293   1.624   5.050 -0.6593  0.1741  0.8610
   87POPC  H15Y11654   2.342   1.750   5.159 -2.6714  0.4510 -0.5414
   87POPC  C31611655   2.298   1.555   5.261 -0.6559  0.2290 -0.2487
   87POPC  H16X11656   2.283   1.446   5.250 -2.0588  0.1429  2.2304
   87POPC  H16Y11657   2.204   1.603   5.294  0.4664  1.1983  1.6560
   87POPC  H16Z11658   2.361   1.545   5.352 -0.2577  0.7079 -0.4662
   88POPC     N11659   6.730   4.278   6.586 -0.1711  0.4732  0.1113
   88POPC   C1211660   6.716   4.337   6.447 -0.0838 -0.1036 -0.1429
   88POPC  H12A11664   6.814   4.371   6.416  1.1187 -2.3127  1.0683
   88POPC  H12B11665   6.664   4.429   6.468  0.3904  0.5279 -1.7168
   88POPC   C1311661   6.708   4.386   6.690  0.1462  0.5179  0.1336
   88POPC  H13A11666   6.718   4.350   6.791 -0.2849 -0.4053 -0.1385
   88POPC  H13B11667   6.788   4.458   6.685  1.2700 -0.5373  2.2404
   88POPC  H13C11668   6.614   4.438   6.675 -0.8105 -0.2480  3.1079
   88POPC   C1411662   6.626   4.174   6.619  0.6326 -0.3305  0.0964
   88POPC  H14A11669   6.631   4.097   6.543  1.7598 -0.5559  0.3976
   88POPC  H14B11670   6.665   4.128   6.709  0.1401 -0.6976  0.1267
   88POPC  H14C11671   6.532   4.225   6.634 -0.4224 -1.9247 -0.8415
   88POPC   C1511663   6.864   4.210   6.595 -0.4225  0.0635  0.7457
   88POPC  H15A11672   6.874   4.189   6.701 -1.1607  1.1835  1.0518
   88POPC  H15B11673   6.941   4.280   6.568  0.0442 -0.2949  1.1246
   88POPC  H15C11674   6.865   4.125   6.529  1.3231  0.8292 -0.2220
   88POPC   C1111675   6.661   4.251   6.334 -0.1706  0.0270 -0.1985
   88POPC  H11A11676   6.669   4.305   6.237 -3.1187  1.6491  0.3908
   88POPC  H11B11677   6.552   4.244   6.357 -0.4988  1.2717 -1.2801
   88POPC     P11678   6.653   4.013   6.241  0.1831  0.4244  0.2922
   88POPC   O1311679   6.540   3.967   6.325 -0.1122  0.4977 -0.0661
   88POPC   O1411680   6.752   3.908   6.208 -0.2354  0.0191  0.3255
   88POPC   O1211681   6.730   4.127   6.323  0.2223  0.1702  0.6113
   88POPC   O1111682   6.600   4.081   6.106  0.0874  0.1392  0.1858
   88POPC    C111683   6.476   4.034   6.053  0.2519  0.3658 -0.3982
   88POPC    HA11684   6.425   4.111   5.992 -0.5217  0.6414  0.5899
   88POPC    HB11685   6.414   3.999   6.138 -0.0212  0.5891 -0.5069
   88POPC    C211686   6.488   3.912   5.960  0.5203 -0.2367  0.4193
   88POPC    HS11687   6.556   3.836   6.005 -0.0784  0.1097  1.9303
   88POPC   O2111688   6.558   3.957   5.843 -0.5255  0.0963 -0.0804
   88POPC   C2111689   6.597   3.857   5.763 -0.4428  0.3023 -0.2990
   88POPC   O2211690   6.595   3.738   5.791 -0.0395  0.3583 -0.0221
   88POPC   C2211691   6.632   3.920   5.630 -0.2911 -0.3340 -0.5626
   88POPC   H2R11692   6.672   4.023   5.647  1.6727 -0.9470 -1.3195
   88POPC   H2S11693   6.537   3.934   5.574  0.3658  0.6031 -1.4729
   88POPC    C311694   6.348   3.859   5.927  0.5096 -0.0831  0.2215
   88POPC    HX11695   6.301   3.834   6.024  0.9553  0.8024  0.6628
   88POPC    HY11696   6.352   3.763   5.870  0.5210  1.0652 -1.7553
   88POPC   O3111697   6.264   3.946   5.850  0.1549 -0.0303  0.6664
   88POPC   C3111698   6.183   4.031   5.913 -0.5774  0.1119 -0.4534
   88POPC   O3211699   6.156   4.023   6.032 -0.2951  0.1967 -0.3827
   88POPC   C3211700   6.120   4.122   5.808 -0.1696  0.2584 -0.5707
   88POPC   H2X11701   6.014   4.094   5.796 -0.4153  0.9461 -0.0392
   88POPC   H2Y11702   6.170   4.101   5.711  2.5192  1.1738  0.5534
   88POPC   C2311703   6.729   3.837   5.546 -0.3094 -0.6344 -0.2864
   88POPC   H3R11704   6.676   3.740   5.547 -1.9966  0.2805  2.7872
   88POPC   H3S11705   6.832   3.830   5.588 -0.2529 -0.6315 -0.4204
   88POPC   C2411706   6.741   3.892   5.403  0.4697  0.1740  0.0800
   88POPC   H4R11707   6.760   4.001   5.399  0.2413  0.3191  2.2438
   88POPC   H4S11708   6.645   3.895   5.347 -0.3391 -1.9875  1.2994
   88POPC   C2511709   6.848   3.815   5.325 -0.3207 -0.6018 -0.2506
   88POPC   H5R11710   6.941   3.795   5.381 -0.1327 -1.2028 -0.7738
   88POPC   H5S11711   6.879   3.876   5.238  3.1716 -0.0780  1.2808
   88POPC   C2611712   6.796   3.679   5.278 -0.1105 -0.7700  0.0071
   88POPC   H6R11713   6.771   3.621   5.369 -0.2256 -0.6681  0.0405
   88POPC   H6S11714   6.877   3.640   5.214  1.9102  0.1314  1.9484
   88POPC   C2711715   6.677   3.696   5.184  0.0716  0.2840 -0.0453
   88POPC   H7R11716   6.695   3.788   5.125  2.9900 -0.8381 -0.9907
   88POPC   H7S11717   6.585   3.713   5.244 -0.0469  3.5342 -1.0691
   88POPC   C2811718   6.663   3.577   5.087 -0.0810 -0.1625  0.5241
   88POPC   H8R11719   6.659   3.487   5.153 -1.0092 -1.2453 -0.9962
   88POPC   H8S11720   6.751   3.566   5.021 -0.1543 -0.2577  0.4428
   88POPC   C2911721   6.539   3.601   5.006 -0.0165 -0.2543  0.3981
   88POPC   H9111722   6.481   3.689   5.037 -0.2778 -0.0223 -0.7290
   88POPC  C21011723   6.498   3.526   4.903 -0.1432  0.1974  0.1184
   88POPC  H10111724   6.406   3.562   4.854  0.9241 -0.2946 -2.3301
   88POPC  C21111725   6.562   3.405   4.842 -0.2679  0.3689 -0.3597
   88POPC  H11R11726   6.608   3.337   4.918  1.3622  0.3384 -1.3441
   88POPC  H11S11727   6.651   3.433   4.781  0.7033 -0.4533  0.6415
   88POPC  C21211728   6.463   3.318   4.765 -0.2992  0.4870 -0.4526
   88POPC  H12R11729   6.414   3.374   4.682  0.9406 -0.9123 -2.1459
   88POPC  H12S11730   6.389   3.286   4.842  0.8551  0.3154  0.6020
   88POPC  C21311731   6.534   3.196   4.709 -0.3620  0.2261  0.0313
   88POPC  H13R11732   6.601   3.150   4.784 -2.3443 -4.0557 -0.6511
   88POPC  H13S11733   6.596   3.230   4.623  0.5493 -0.1866  0.5194
   88POPC  C21411734   6.435   3.090   4.658 -0.1820  0.1900 -0.2471
   88POPC  H14R11735   6.403   3.125   4.557  0.8473  2.4246  0.1655
   88POPC  H14S11736   6.345   3.076   4.722  0.6458 -0.1702  0.8620
   88POPC  C21511737   6.494   2.951   4.636 -0.1364  0.2079 -0.2416
   88POPC  H15R11738   6.595   2.945   4.591  0.9179  0.0450  2.0829
   88POPC  H15S11739   6.420   2.909   4.564 -0.3004  1.6420 -0.9094
   88POPC  C21611740   6.489   2.865   4.763  0.5923  0.7473  0.1569
   88POPC  H16R11741   6.380   2.864   4.785  0.3809  1.6759 -0.8352
   88POPC  H16S11742   6.529   2.908   4.857 -0.9544  1.9118  0.2960
   88POPC  C21711743   6.544   2.724   4.740 -0.5407  0.3408 -0.0992
   88POPC  H17R11744   6.499   2.666   4.824  1.9998 -0.9502  0.4124
   88POPC  H17S11745   6.654   2.729   4.750 -0.6055  1.9589 -0.1129
   88POPC  C21811746   6.507   2.661   4.606 -0.3762 -0.0873  0.0547
   88POPC  H18R11747   6.533   2.738   4.530  0.3369  1.1074  1.4834
   88POPC  H18S11748   6.398   2.642   4.596 -0.4367 -0.7102  1.7526
   88POPC  H18T11749   6.564   2.567   4.588  1.7685  0.7984  1.9948
   88POPC   C3311750   6.149   4.272   5.824  0.0196  0.1518  0.1170
   88POPC   H3X11751   6.116   4.310   5.923  0.3209  0.3175  0.1541
   88POPC   H3Y11752   6.084   4.317   5.746  0.6439 -1.9673 -1.6695
   88POPC   C3411753   6.293   4.304   5.787 -0.2237  0.1715 -0.8335
   88POPC   H4X11754   6.329   4.234   5.708  0.2864  0.1771 -0.6114
   88POPC   H4Y11755   6.355   4.284   5.877  1.5926  1.2909 -1.8033
   88POPC   C3511756   6.303   4.440   5.718  0.1816  0.6090  0.0740
   88POPC   H5X11757   6.272   4.513   5.796  1.3024  0.6708  0.4600
   88POPC   H5Y11758   6.231   4.446   5.633  0.3491 -0.7324 -0.1696
   88POPC   C3611759   6.442   4.476   5.666  0.2716  0.0838 -0.0570
   88POPC   H6X11760   6.480   4.412   5.583 -2.2320 -2.0413  0.3733
   88POPC   H6Y11761   6.514   4.469   5.751  2.0773  0.2396 -1.5435
   88POPC   C3711762   6.458   4.623   5.626  0.3412  0.0931  0.0008
   88POPC   H7X11763   6.562   4.640   5.592  1.0774 -3.1998  0.4306
   88POPC   H7Y11764   6.437   4.680   5.719  0.8447 -1.6907  1.2398
   88POPC   C3811765   6.360   4.680   5.523  0.4242 -0.5073 -0.4084
   88POPC   H8X11766   6.268   4.709   5.578  1.3489  1.2819  0.2406
   88POPC   H8Y11767   6.316   4.608   5.450 -0.2108  0.3751 -0.9028
   88POPC   C3911768   6.405   4.812   5.461  0.4435 -0.2800  0.0873
   88POPC   H9X11769   6.513   4.812   5.436  0.7059  0.0832  1.1691
   88POPC   H9Y11770   6.400   4.883   5.546  3.0980 -1.0131  0.8798
   88POPC  C31011771   6.324   4.875   5.347 -0.8209 -0.1810  1.0321
   88POPC  H10X11772   6.350   4.980   5.325  0.2663 -0.4062  1.2088
   88POPC  H10Y11773   6.219   4.885   5.384  0.1322  1.1829  3.5141
   88POPC  C31111774   6.318   4.799   5.214  0.4377  0.5603  0.5522
   88POPC  H11X11775   6.266   4.705   5.242 -1.1352  1.7467  1.7103
   88POPC  H11Y11776   6.416   4.780   5.166 -0.0296 -1.6048  0.4072
   88POPC  C31211777   6.234   4.876   5.112  0.4987  0.1437  0.1857
   88POPC  H12X11778   6.300   4.951   5.064  0.0539  0.3187 -0.1555
   88POPC  H12Y11779   6.144   4.925   5.157 -0.7808 -1.7170 -0.3210
   88POPC  C31311780   6.183   4.776   5.008  0.6059  0.6197 -0.3282
   88POPC  H13X11781   6.118   4.706   5.064  1.0726  0.7473  0.3879
   88POPC  H13Y11782   6.265   4.711   4.969  0.3380  0.1301 -0.0739
   88POPC  C31411783   6.112   4.834   4.886  0.1772  0.1420 -0.3028
   88POPC  H14X11784   6.179   4.903   4.831  0.0651 -0.5213 -1.2890
   88POPC  H14Y11785   6.014   4.883   4.904  0.2303  0.0788  0.1622
   88POPC  C31511786   6.081   4.720   4.789 -0.0814  0.2475 -0.3446
   88POPC  H15X11787   6.022   4.644   4.845 -0.1587  0.0405 -0.7031
   88POPC  H15Y11788   6.175   4.667   4.764  0.7566  0.0813  2.9464
   88POPC  C31611789   6.005   4.765   4.664 -0.5031  0.0612 -0.1568
   88POPC  H16X11790   5.908   4.807   4.697  1.0324  2.5069  1.3363
   88POPC  H16Y11791   5.982   4.675   4.601  1.4428  0.3100 -1.2511
   88POPC  H16Z11792   6.056   4.840   4.601  0.5923 -1.0945 -0.6757
   89POPC     N11793   6.322   6.837   5.910 -0.0397  0.1504  0.2199
   89POPC   C1211794   6.463   6.783   5.897 -0.2109 -0.2846  0.1355
   89POPC  H12A11798   6.468   6.686   5.943  0.9031 -0.5048 -0.4461
   89POPC  H12B11799   6.526   6.850   5.955  0.2790 -0.8284  0.2299
   89POPC   C1311795   6.299   6.982   5.875 -0.3709 -0.1021 -0.6324
   89POPC  H13A11800   6.302   7.013   5.772 -3.4345 -1.2605 -1.1348
   89POPC  H13B11801   6.200   7.018   5.900 -0.8194 -0.3192 -2.0796
   89POPC  H13C11802   6.371   7.038   5.933  0.2945 -0.4503 -1.1143
   89POPC   C1411796   6.236   6.748   5.823 -0.3687 -0.1279  0.8177
   89POPC  H14A11803   6.276   6.647   5.816 -1.1362 -0.3420 -0.8064
   89POPC  H14B11804   6.133   6.761   5.849 -1.2309 -1.0156 -1.9409
   89POPC  H14C11805   6.256   6.777   5.720 -1.1298  0.0682  0.7283
   89POPC   C1511797   6.278   6.821   6.054  0.4265 -0.7445  0.2682
   89POPC  H15A11806   6.264   6.714   6.058  2.1687 -1.1900 -3.1607
   89POPC  H15B11807   6.183   6.869   6.069  1.1901  0.9360 -0.1354
   89POPC  H15C11808   6.353   6.860   6.121 -1.5174 -0.5738  2.3824
   89POPC   C1111809   6.542   6.770   5.767 -0.2527  0.1917  0.0600
   89POPC  H11A11810   6.499   6.687   5.707  0.7995  0.2372 -0.7695
   89POPC  H11B11811   6.645   6.739   5.794 -0.2040 -0.2432 -0.6239
   89POPC     P11812   6.665   6.983   5.725 -0.1461  0.0637 -0.1326
   89POPC   O1311813   6.787   6.914   5.771  0.2043  0.2358 -0.7888
   89POPC   O1411814   6.621   7.098   5.807 -0.4512  0.1570 -0.4227
   89POPC   O1211815   6.544   6.887   5.685 -0.0482 -0.0189 -0.2324
   89POPC   O1111816   6.700   7.040   5.579  0.2945  0.1414  0.0035
   89POPC    C111817   6.631   7.154   5.529  0.2262  0.1527  0.1263
   89POPC    HA11818   6.686   7.180   5.436  0.1693 -2.4261 -0.6544
   89POPC    HB11819   6.648   7.235   5.603  0.9745 -0.2699  0.4170
   89POPC    C211820   6.478   7.141   5.518  0.2296  0.3018 -0.1275
   89POPC    HS11821   6.433   7.140   5.620  0.5622  3.2066  0.0740
   89POPC   O2111822   6.450   7.025   5.439 -0.1440  0.1905  0.1672
   89POPC   C2111823   6.327   6.984   5.472  0.0075 -0.0934  0.3789
   89POPC   O2211824   6.252   7.034   5.553 -0.3903 -0.3167  0.1539
   89POPC   C2211825   6.286   6.869   5.381  0.1113  0.3916 -0.2856
   89POPC   H2R11826   6.371   6.800   5.358 -0.1058 -0.0055  0.1062
   89POPC   H2S11827   6.257   6.921   5.287 -0.3787  1.1048  0.2658
   89POPC    C311828   6.414   7.270   5.465 -1.1469 -0.5279 -0.5266
   89POPC    HX11829   6.450   7.357   5.526  0.4144 -1.1848 -0.4909
   89POPC    HY11830   6.304   7.281   5.459 -0.8679  2.9998 -0.2914
   89POPC   O3111831   6.471   7.302   5.338  0.0848 -0.6977 -0.0289
   89POPC   C3111832   6.403   7.264   5.230 -0.3557  0.3586 -0.1288
   89POPC   O3211833   6.301   7.197   5.241  0.0291 -0.2667 -0.3754
   89POPC   C3211834   6.473   7.310   5.103 -0.1983  0.0881 -0.1383
   89POPC   H2X11835   6.528   7.224   5.059  0.7152  0.2903  0.6010
   89POPC   H2Y11836   6.545   7.390   5.129 -1.4242  1.5220 -1.1009
   89POPC   C2311837   6.162   6.796   5.434  0.4074  0.0803 -0.0161
   89POPC   H3R11838   6.084   6.866   5.469  0.7861  1.0205 -1.0119
   89POPC   H3S11839   6.199   6.736   5.519  3.7650  2.0229 -0.0100
   89POPC   C2411840   6.087   6.698   5.343  0.3305 -0.1658  0.3150
   89POPC   H4R11841   6.027   6.748   5.265  0.6940 -1.1397 -0.5994
   89POPC   H4S11842   6.025   6.635   5.410 -3.0757  2.1679 -0.5552
   89POPC   C2511843   6.173   6.595   5.269 -0.1815 -0.2347 -0.1785
   89POPC   H5R11844   6.221   6.540   5.353 -0.2491  0.0013  0.0153
   89POPC   H5S11845   6.241   6.654   5.204 -1.7521  2.4649  0.5592
   89POPC   C2611846   6.072   6.505   5.196  0.2137 -0.4509 -0.4573
   89POPC   H6R11847   6.026   6.565   5.115  0.1434 -0.2505 -0.2708
   89POPC   H6S11848   5.996   6.475   5.271  0.7589 -0.9010 -0.0727
   89POPC   C2711849   6.149   6.395   5.122  0.1005 -0.3029 -0.7940
   89POPC   H7R11850   6.077   6.338   5.061 -2.2339  1.2684  0.4081
   89POPC   H7S11851   6.195   6.317   5.186  0.0274  1.6455  1.7067
   89POPC   C2811852   6.258   6.458   5.035 -0.1417  0.9156 -0.2279
   89POPC   H8R11853   6.339   6.519   5.081 -0.1014 -0.4291  1.5275
   89POPC   H8S11854   6.202   6.519   4.961 -1.8922  0.8899  1.0525
   89POPC   C2911855   6.329   6.361   4.945 -0.5345  0.4529 -0.0398
   89POPC   H9111856   6.422   6.325   4.989 -0.2527  1.3278  0.0974
   89POPC  C21011857   6.300   6.334   4.817  0.3919  0.3492 -0.2274
   89POPC  H10111858   6.369   6.268   4.761 -0.3398 -0.4162 -0.2394
   89POPC  C21111859   6.193   6.393   4.729  0.4008  0.0547 -0.4334
   89POPC  H11R11860   6.106   6.441   4.778 -0.9386  0.2508 -2.9120
   89POPC  H11S11861   6.144   6.309   4.675 -1.3015  0.8184 -0.0926
   89POPC  C21211862   6.242   6.490   4.622  0.2870  0.3890 -0.1811
   89POPC  H12R11863   6.345   6.462   4.589 -0.2539  0.3063 -1.8724
   89POPC  H12S11864   6.250   6.592   4.665 -0.3393  0.8329 -1.0990
   89POPC  C21311865   6.155   6.508   4.498 -0.0111 -0.2765 -0.0670
   89POPC  H13R11866   6.142   6.420   4.431  3.2375 -1.2813  0.5503
   89POPC  H13S11867   6.201   6.584   4.431  0.8743  0.8245  1.7771
   89POPC  C21411868   6.026   6.583   4.534  0.1907 -0.0542  0.1954
   89POPC  H14R11869   6.045   6.675   4.593 -1.1803 -0.0686  0.6807
   89POPC  H14S11870   5.956   6.526   4.599  0.0896  1.1201  1.1345
   89POPC  C21511871   5.950   6.626   4.408 -0.3214 -0.0458  0.5055
   89POPC  H15R11872   6.001   6.712   4.359  1.2342 -0.6238  1.0730
   89POPC  H15S11873   5.852   6.666   4.441 -0.8943 -1.1259  0.1205
   89POPC  C21611874   5.914   6.525   4.299  0.0131  0.2177  0.1466
   89POPC  H16R11875   5.861   6.441   4.348 -2.5140  0.2208 -2.4213
   89POPC  H16S11876   6.011   6.488   4.259 -0.5873 -0.8614 -0.3320
   89POPC  C21711877   5.843   6.587   4.178  0.2165 -0.3109 -0.2470
   89POPC  H17R11878   5.896   6.675   4.137  0.8727 -0.2002  0.8227
   89POPC  H17S11879   5.754   6.636   4.225 -0.1827 -1.3550  0.0987
   89POPC  C21811880   5.795   6.483   4.077 -0.8007 -0.5747  0.4919
   89POPC  H18R11881   5.716   6.413   4.112 -2.3683  0.3355 -1.1398
   89POPC  H18S11882   5.889   6.427   4.057 -1.9025 -2.7963  1.3786
   89POPC  H18T11883   5.762   6.540   3.988 -0.2025 -0.5617  0.2725
   89POPC   C3311884   6.368   7.363   5.005 -0.2861 -0.0338 -0.1125
   89POPC   H3X11885   6.316   7.448   5.054  0.7039  0.0712  0.7760
   89POPC   H3Y11886   6.290   7.286   4.988 -0.8004  0.8853 -2.0559
   89POPC   C3411887   6.437   7.393   4.872  0.0100 -0.0855  0.0290
   89POPC   H4X11888   6.467   7.297   4.824 -0.4789 -0.4021  0.3483
   89POPC   H4Y11889   6.530   7.439   4.909  0.7265 -3.1974  2.2425
   89POPC   C3511890   6.356   7.479   4.774  0.4840 -0.1921 -0.4590
   89POPC   H5X11891   6.310   7.564   4.829 -0.8385 -1.3810  0.3197
   89POPC   H5Y11892   6.271   7.420   4.731 -0.8522  0.3145  1.4356
   89POPC   C3611893   6.446   7.540   4.666 -0.0991  0.4196 -0.5990
   89POPC   H6X11894   6.495   7.466   4.601 -1.3783  1.4505 -2.7855
   89POPC   H6Y11895   6.520   7.602   4.722 -1.1077 -0.1927  1.4935
   89POPC   C3711896   6.361   7.620   4.567 -0.3940 -0.0330 -0.7107
   89POPC   H7X11897   6.278   7.671   4.621 -1.4554  1.3840 -3.5774
   89POPC   H7Y11898   6.322   7.536   4.505  0.4222 -0.1037 -1.1382
   89POPC   C3811899   6.452   7.708   4.480  0.2606  0.3247  0.3307
   89POPC   H8X11900   6.508   7.630   4.424 -0.4350  0.7366 -0.9603
   89POPC   H8Y11901   6.515   7.765   4.552  0.9717  0.3625 -0.3157
   89POPC   C3911902   6.397   7.805   4.375  0.1348  0.0298  0.1227
   89POPC   H9X11903   6.337   7.883   4.427  0.4150  0.2957  0.0489
   89POPC   H9Y11904   6.328   7.747   4.311 -2.1964  2.7413  0.0749
   89POPC  C31011905   6.513   7.859   4.291 -0.4952  0.4942 -0.4517
   89POPC  H10X11906   6.586   7.776   4.290 -1.9095 -0.7830  0.4169
   89POPC  H10Y11907   6.562   7.940   4.350  1.1220 -0.3385 -0.6316
   89POPC  C31111908   6.478   7.911   4.152  0.0694  0.0647 -0.7560
   89POPC  H11X11909   6.548   0.001   4.083 -2.7931  0.0414 -3.8091
   89POPC  H11Y11910   6.392   0.017   4.170 -0.5308 -0.9765  0.5391
   89POPC  C31211911   6.424   7.792   4.072 -1.0276 -0.1171  0.2395
   89POPC  H12X11912   6.323   7.760   4.104  0.6533 -1.3586  4.6598
   89POPC  H12Y11913   6.496   7.712   4.101  1.1161  1.1927 -1.3049
   89POPC  C31311914   6.424   7.822   3.922 -0.0022  0.1299  0.2862
   89POPC  H13X11915   6.394   7.730   3.868  0.1618  0.2347  0.0153
   89POPC  H13Y11916   6.532   7.827   3.894 -0.0419  0.8537  0.2535
   89POPC  C31411917   6.350   7.951   3.886  0.3732  0.2743  0.0262
   89POPC  H14X11918   6.346   7.935   3.776  1.1067  1.8104 -0.2432
   89POPC  H14Y11919   6.397   0.086   3.911  0.2780 -0.1317  1.9890
   89POPC  C31511920   6.201   7.950   3.919  0.5366 -0.1264  0.7587
   89POPC  H15X11921   6.154   0.079   3.876 -0.2590 -0.5221  0.6790
   89POPC  H15Y11922   6.184   0.009   4.027  0.7977  0.4590  0.6885
   89POPC  C31611923   6.126   7.824   3.877 -0.6857  1.0025 -0.4669
   89POPC  H16X11924   6.132   7.813   3.766  0.8489 -2.3389 -0.1081
   89POPC  H16Y11925   6.023   7.822   3.919 -0.7152  0.2557 -0.5692
   89POPC  H16Z11926   6.176   7.733   3.915 -1.7249  0.9759  0.8663
   90POPC     N11927   5.553   0.075   6.424  0.2091 -0.0511 -0.3561
   90POPC   C1211928   5.473   7.922   6.368  0.2778 -0.2734 -0.0877
   90POPC  H12A11932   5.369   7.950   6.366  0.3109 -0.1924 -0.9155
   90POPC  H12B11933   5.486   7.849   6.446 -0.4820 -1.1476 -0.7650
   90POPC   C1311929   5.699   0.035   6.428  0.3358  0.4053 -0.4038
   90POPC  H13A11934   5.716   7.909   6.488  0.7357  1.9887  1.9485
   90POPC  H13B11935   5.735   0.019   6.328 -3.1822  0.9383 -1.8349
   90POPC  H13C11936   5.753   0.115   6.476 -0.0595  0.9634 -0.8857
   90POPC   C1411930   5.547   0.196   6.334 -0.0985  0.2518  0.0723
   90POPC  H14A11937   5.474   0.272   6.358 -0.5697  0.2321 -1.2936
   90POPC  H14B11938   5.643   0.244   6.347 -0.1942  0.2597  0.8021
   90POPC  H14C11939   5.551   0.159   6.233  1.4675  0.0879  0.1891
   90POPC   C1511931   5.503   0.104   6.564  0.1349 -0.4941 -0.2886
   90POPC  H15A11940   5.401   0.137   6.558 -0.1399 -1.1358  0.8525
   90POPC  H15B11941   5.565   0.178   6.612  1.3331 -1.3205 -0.5237
   90POPC  H15C11942   5.508   0.012   6.619 -0.6251  0.7992  1.9881
   90POPC   C1111943   5.505   7.863   6.230  0.2454 -0.0979 -0.1704
   90POPC  H11A11944   5.444   7.772   6.215 -1.7124  0.6995  2.5330
   90POPC  H11B11945   5.611   7.829   6.228 -0.6766 -2.9577 -1.8346
   90POPC     P11946   5.481   7.917   5.986  0.1254 -0.2161 -0.2476
   90POPC   O1311947   5.342   7.867   5.976  0.0151 -0.0504  0.4680
   90POPC   O1411948   5.595   7.827   5.959  0.3880  0.1971 -0.5335
   90POPC   O1211949   5.489   0.008   6.136  0.0195 -0.1576 -0.2485
   90POPC   O1111950   5.492   0.089   5.899 -0.0399  0.0461  0.0708
   90POPC    C111951   5.371   0.150   5.854  0.0691  0.4154  0.2802
   90POPC    HA11952   5.381   0.259   5.835 -2.1367  0.7292  0.7838
   90POPC    HB11953   5.296   0.140   5.936  0.6361 -0.6726  0.6713
   90POPC    C211954   5.323   0.083   5.725  0.5939 -0.0593  0.3300
   90POPC    HS11955   5.275   7.954   5.767  0.4018  0.9714  2.4714
   90POPC   O2111956   5.442   0.054   5.651  0.2206 -0.0273 -0.2881
   90POPC   C2111957   5.443   7.896   5.592  0.2424 -0.1754 -0.0670
   90POPC   O2211958   5.375   7.802   5.630 -0.0117  0.1223  0.2257
   90POPC   C2211959   5.543   7.907   5.479  0.5179  0.6534  0.2550
   90POPC   H2R11960   5.643   7.872   5.510  0.4417  0.0976 -0.1240
   90POPC   H2S11961   5.545   0.053   5.451 -0.0272  0.6514  0.0318
   90POPC    C311962   5.226   0.173   5.646  0.5516 -0.0869  0.3522
   90POPC    HX11963   5.287   0.265   5.635  1.8109 -1.0757 -1.2414
   90POPC    HY11964   5.139   0.205   5.707 -0.7433  2.9436 -2.9266
   90POPC   O3111965   5.191   0.108   5.523  0.0149  0.1357  0.3864
   90POPC   C3111966   5.089   0.021   5.530  0.5482 -0.5138  0.1339
   90POPC   O3211967   5.028   7.946   5.628  0.0836 -0.0118  0.0504
   90POPC   C3211968   5.052   7.927   5.393  0.0029  0.1105  0.0047
   90POPC   H2X11969   5.141   7.884   5.342 -0.1901  0.4366 -0.6040
   90POPC   H2Y11970   5.024   0.053   5.331  0.0992  0.6334  0.6338
   90POPC   C2311971   5.496   7.828   5.357 -0.2476  0.4639  0.6711
   90POPC   H3R11972   5.385   7.838   5.353 -0.1936  1.7458  2.1251
   90POPC   H3S11973   5.514   7.721   5.379  1.1149  0.2037 -1.5457
   90POPC   C2411974   5.578   7.862   5.232 -1.1452  0.3362  0.0384
   90POPC   H4R11975   5.683   7.825   5.235 -1.0702  0.2527 -2.5787
   90POPC   H4S11976   5.584   0.006   5.202  3.8775 -0.2437 -1.6325
   90POPC   C2511977   5.523   7.797   5.105 -0.0992  0.0230 -0.2610
   90POPC   H5R11978   5.542   7.688   5.105 -0.5033 -0.0523 -0.9010
   90POPC   H5S11979   5.582   7.846   5.025 -0.5089  0.1888 -0.4667
   90POPC   C2611980   5.380   7.830   5.062 -0.3761  0.2602  0.8282
   90POPC   H6R11981   5.321   7.802   5.152 -0.5848  0.2479  0.6893
   90POPC   H6S11982   5.357   7.761   4.978  1.3145 -0.6658  1.1051
   90POPC   C2711983   5.363   7.961   4.986 -0.1168 -0.6466 -0.8991
   90POPC   H7R11984   5.409   0.003   4.885  0.1522 -0.4486 -0.7687
   90POPC   H7S11985   5.414   0.074   5.050 -0.9560 -2.3857  1.8929
   90POPC   C2811986   5.216   0.040   4.974  0.0634  0.0950 -0.5965
   90POPC   H8R11987   5.176   0.079   5.071 -1.9763  2.3062 -2.2559
   90POPC   H8S11988   5.157   7.914   4.943 -3.0399  1.6583  0.5076
   90POPC   C2911989   5.210   0.157   4.879  0.4591  0.3279 -0.3363
   90POPC   H9111990   5.241   0.253   4.923 -1.9016  1.1447 -0.4408
   90POPC  C21011991   5.186   0.151   4.747 -0.3498  0.5919 -0.1993
   90POPC  H10111992   5.195   0.242   4.686 -0.5090 -0.1475 -1.3287
   90POPC  C21111993   5.157   0.030   4.663  0.1013  0.7145 -0.5300
   90POPC  H11R11994   5.064   0.054   4.608  0.0581  1.8139 -0.0047
   90POPC  H11S11995   5.147   7.902   4.727 -1.7867  2.0287  1.1515
   90POPC  C21211996   5.272   0.012   4.564  0.1937  0.0879 -0.3120
   90POPC  H12R11997   5.257   7.873   4.521 -1.3164  0.8511 -1.7230
   90POPC  H12S11998   5.370   0.012   4.617 -1.4679 -1.5190  2.8413
   90POPC  C21311999   5.273   0.118   4.453 -0.0200  0.3759 -0.0396
   90POPC  H13R12000   5.371   0.099   4.404  0.9421  1.4352  1.4226
   90POPC  H13S12001   5.277   0.222   4.490 -0.4972  0.5116 -0.3700
   90POPC  C21412002   5.163   0.092   4.350 -0.3477  0.0168  0.3995
   90POPC  H14R12003   5.061   0.091   4.396 -1.0015  0.1967 -1.0105
   90POPC  H14S12004   5.182   7.954   4.307  0.7647  0.4949 -0.3182
   90POPC  C21512005   5.168   0.177   4.223 -0.2858  0.0019  0.3925
   90POPC  H15R12006   5.100   0.134   4.147  2.1324 -1.7336 -0.8519
   90POPC  H15S12007   5.269   0.173   4.176  0.6035  3.6569  1.8472
   90POPC  C21612008   5.133   0.323   4.249 -0.9384 -0.0808 -0.0184
   90POPC  H16R12009   5.222   0.375   4.291  0.0688  0.3544 -2.6360
   90POPC  H16S12010   5.056   0.335   4.329 -1.3744  1.8777 -0.7007
   90POPC  C21712011   5.096   0.399   4.121  0.3406  0.6521  0.0446
   90POPC  H17R12012   5.000   0.361   4.081  0.5890 -1.2907  1.2354
   90POPC  H17S12013   5.184   0.376   4.056  0.7074  1.9844  0.0470
   90POPC  C21812014   5.083   0.548   4.152  0.1606  0.5704  0.3681
   90POPC  H18R12015   5.053   0.610   4.065  0.0375 -1.0674 -0.7851
   90POPC  H18S12016   5.181   0.569   4.199  1.1340  0.9549 -1.7831
   90POPC  H18T12017   5.007   0.569   4.230 -0.5715  0.7793 -0.3869
   90POPC   C3312018   4.936   7.829   5.402 -0.2361  0.3706 -0.2546
   90POPC   H3X12019   4.842   7.871   5.444 -0.6996 -0.8348 -0.0592
   90POPC   H3Y12020   4.969   7.743   5.464  0.0263  0.2052 -0.6210
   90POPC   C3412021   4.905   7.754   5.272 -0.3244 -0.3483  0.1755
   90POPC   H4X12022   4.837   7.668   5.290 -0.8985 -0.0577 -0.5739
   90POPC   H4Y12023   5.003   7.714   5.240 -0.4539  0.2448 -1.0040
   90POPC   C3512024   4.883   7.842   5.148 -0.1170 -0.6225 -0.0567
   90POPC   H5X12025   4.978   7.895   5.123 -0.0391 -0.2787  0.9143
   90POPC   H5Y12026   4.796   7.909   5.162 -0.8013 -0.9078 -2.8041
   90POPC   C3612027   4.853   7.747   5.032 -0.0405 -0.2402 -0.3922
   90POPC   H6X12028   4.754   7.697   5.038 -0.9653  1.6944  1.0078
   90POPC   H6Y12029   4.937   7.674   5.031 -1.4650 -2.0507  2.4590
   90POPC   C3712030   4.852   7.810   4.893 -0.5269 -0.0314 -0.2946
   90POPC   H7X12031   4.944   7.869   4.876 -0.3839 -0.1550  0.0610
   90POPC   H7Y12032   4.776   7.889   4.877 -0.2219  0.1911 -0.6265
   90POPC   C3812033   4.830   7.720   4.771  0.1170  0.1106 -0.5198
   90POPC   H8X12034   4.737   7.659   4.785  1.9359 -2.2977  1.6299
   90POPC   H8Y12035   4.910   7.643   4.770 -0.1162 -0.1522  0.2631
   90POPC   C3912036   4.836   7.791   4.636  0.2329  0.3081 -0.4088
   90POPC   H9X12037   4.934   7.844   4.647 -0.4025  1.3849  0.2159
   90POPC   H9Y12038   4.749   7.861   4.634  0.4480  0.5534 -3.0755
   90POPC  C31012039   4.846   7.711   4.507 -0.1471 -0.0898 -0.1881
   90POPC  H10X12040   4.751   7.653   4.497  0.5173 -1.6161  1.9694
   90POPC  H10Y12041   4.926   7.634   4.504 -0.2514 -0.3185  1.9687
   90POPC  C31112042   4.868   7.804   4.388 -0.2767 -0.0993 -0.2219
   90POPC  H11X12043   4.960   7.864   4.408 -0.3827 -0.1736  0.5058
   90POPC  H11Y12044   4.781   7.871   4.373  0.6693  1.5575  1.4636
   90POPC  C31212045   4.905   7.726   4.261  0.1587 -0.0647 -0.1182
   90POPC  H12X12046   4.822   7.655   4.245  0.2058 -0.4474  1.2586
   90POPC  H12Y12047   5.005   7.684   4.287  0.0119  0.8013  1.9480
   90POPC  C31312048   4.923   7.818   4.140  0.3442 -0.6279 -0.5195
   90POPC  H13X12049   4.978   7.753   4.069 -0.6724 -1.3684 -0.6429
   90POPC  H13Y12050   4.979   7.912   4.160 -0.4186  0.2104 -2.2261
   90POPC  C31412051   4.797   7.851   4.059  0.0020  0.2883  0.3712
   90POPC  H14X12052   4.715   7.894   4.119  0.5358  1.7486  0.0641
   90POPC  H14Y12053   4.753   7.761   4.011  2.8126  0.1655 -2.1958
   90POPC  C31512054   4.814   7.944   3.939  0.5449 -0.0993  0.1403
   90POPC  H15X12055   4.889   7.904   3.867  0.6883 -0.5266  0.5241
   90POPC  H15Y12056   4.853   0.077   3.983 -1.5067  1.3672 -0.9986
   90POPC  C31612057   4.683   0.003   3.864  0.6637  0.0089 -0.0479
   90POPC  H16X12058   4.696   0.066   3.774 -0.7240  0.6095  0.1637
   90POPC  H16Y12059   4.618   0.063   3.931 -0.5045 -1.6935  0.4006
   90POPC  H16Z12060   4.638   7.866   3.840 -1.0404  1.3714 -3.0204
   91POPC     N12061   1.834   7.372   5.948 -0.0679 -0.0958 -0.0826
   91POPC   C1212062   1.921   7.449   5.853 -0.1544  0.0734 -0.0246
   91POPC  H12A12066   1.967   7.378   5.786 -1.1786  0.2911 -0.9810
   91POPC  H12B12067   1.996   7.495   5.916 -0.2720  1.4572 -0.8684
   91POPC   C1312063   1.700   7.323   5.898 -0.1337 -0.0239  0.0224
   91POPC  H13A12068   1.649   7.405   5.849  0.4216 -0.8345 -1.9745
   91POPC  H13B12069   1.711   7.248   5.820  0.2774  0.4053 -0.3367
   91POPC  H13C12070   1.643   7.289   5.983  1.5009 -0.6131  0.9114
   91POPC   C1412064   1.911   7.249   5.990  0.3526  0.4098  0.6291
   91POPC  H14A12071   2.006   7.278   6.033 -0.1958  1.0413  1.4428
   91POPC  H14B12072   1.865   7.196   6.072 -0.3984  0.5457  0.2980
   91POPC  H14C12073   1.927   7.185   5.905 -3.2625  1.6371 -1.0754
   91POPC   C1512065   1.805   7.464   6.064  0.2952 -0.3934  0.2480
   91POPC  H15A12074   1.761   7.412   6.148 -1.2593  1.8068  0.8497
   91POPC  H15B12075   1.744   7.548   6.032 -1.1424 -0.6903  2.0883
   91POPC  H15C12076   1.904   7.503   6.079 -0.0070 -0.3430  2.3617
   91POPC   C1112077   1.842   7.547   5.766 -0.4839 -0.0932  0.0856
   91POPC  H11A12078   1.767   7.505   5.696  0.6875 -0.3672 -1.0205
   91POPC  H11B12079   1.921   7.579   5.694 -1.1834  1.1454 -0.1587
   91POPC     P12080   1.671   7.729   5.780  0.1690  0.2615 -0.1935
   91POPC   O1312081   1.650   7.857   5.853  0.6843  0.2811 -0.0810
   91POPC   O1412082   1.568   7.623   5.786  0.5958 -0.1629 -0.3588
   91POPC   O1212083   1.798   7.658   5.845  0.1045  0.2580 -0.0711
   91POPC   O1112084   1.715   7.756   5.629  0.3034 -0.1356 -0.2254
   91POPC    C112085   1.721   7.891   5.582 -0.4401 -0.0573 -0.0943
   91POPC    HA12086   1.794   7.887   5.499 -0.9535 -3.8979 -0.4300
   91POPC    HB12087   1.767   0.002   5.652 -1.6128 -1.3406  2.0975
   91POPC    C212088   1.579   7.948   5.562 -0.3318  0.1020 -0.4071
   91POPC    HS12089   1.537   0.002   5.664 -2.1975 -0.5206 -1.0652
   91POPC   O2112090   1.495   7.871   5.476 -0.2959 -0.0282 -0.3264
   91POPC   C2112091   1.366   7.904   5.490 -0.2939 -0.3551  0.5137
   91POPC   O2212092   1.320   0.022   5.569  0.5286  0.4847  0.1842
   91POPC   C2212093   1.279   7.830   5.389 -0.1049  0.3864 -0.1922
   91POPC   H2R12094   1.217   7.901   5.330  0.6731  1.1832 -0.0716
   91POPC   H2S12095   1.223   7.751   5.444  0.8353  0.0772  0.3238
   91POPC    C312096   1.586   0.127   5.501  0.7464  0.4419  0.3893
   91POPC    HX12097   1.656   0.195   5.555  1.5082 -1.1064  1.3965
   91POPC    HY12098   1.488   0.177   5.515  0.2819 -0.3403 -0.0420
   91POPC   O3112099   1.621   0.110   5.364  0.0144  0.1126  0.2422
   91POPC   C3112100   1.529   0.132   5.269 -0.0808 -0.7611  0.1357
   91POPC   O3212101   1.412   0.160   5.290 -0.0636 -0.6038  0.0188
   91POPC   C3212102   1.604   0.112   5.138  0.3169  0.4240  0.1773
   91POPC   H2X12103   1.670   0.022   5.139  0.5995  0.6210  2.0429
   91POPC   H2Y12104   1.664   0.203   5.121  0.0600  0.5267 -0.1891
   91POPC   C2312105   1.359   7.758   5.280 -0.2743  0.5357 -0.4180
   91POPC   H3R12106   1.432   7.687   5.325 -1.2092  0.3231  0.8013
   91POPC   H3S12107   1.410   7.836   5.220  2.8730 -0.3450  1.0036
   91POPC   C2412108   1.280   7.665   5.187 -0.2270  0.3648 -0.2875
   91POPC   H4R12109   1.190   7.728   5.174 -0.9318 -0.2681  1.3660
   91POPC   H4S12110   1.254   7.571   5.240 -0.5564  1.1455  0.9678
   91POPC   C2512111   1.351   7.616   5.061  0.6954 -0.3484  0.4934
   91POPC   H5R12112   1.431   7.540   5.072  0.0646 -1.1663 -0.4205
   91POPC   H5S12113   1.404   7.703   5.017  2.5939 -2.5781 -1.7562
   91POPC   C2612114   1.248   7.565   4.960  0.7957 -0.4821  0.4586
   91POPC   H6R12115   1.178   7.643   4.923  2.6139  1.9245  1.9393
   91POPC   H6S12116   1.190   7.490   5.018  0.4374 -1.9359 -1.7051
   91POPC   C2712117   1.309   7.485   4.844 -0.2366 -0.4002 -0.1490
   91POPC   H7R12118   1.235   7.410   4.807  0.0548 -0.0361 -1.4935
   91POPC   H7S12119   1.407   7.441   4.870  0.6686  1.7511  0.2182
   91POPC   C2812120   1.353   7.574   4.728 -0.0921  0.0480  0.2469
   91POPC   H8R12121   1.445   7.623   4.766  0.6016 -1.4062  0.4870
   91POPC   H8S12122   1.290   7.660   4.696 -1.0071 -1.6591 -2.7231
   91POPC   C2912123   1.390   7.492   4.608 -0.0675 -0.1539  0.3921
   91POPC   H9112124   1.478   7.428   4.623  0.4692 -0.1696 -2.4634
   91POPC  C21012125   1.336   7.505   4.486  0.0598 -0.4385  0.3061
   91POPC  H10112126   1.379   7.440   4.408  0.1413 -1.0573  0.8619
   91POPC  C21112127   1.217   7.581   4.435  0.2880 -0.1802  0.1532
   91POPC  H11R12128   1.236   7.669   4.370 -0.3595  1.2300  1.8297
   91POPC  H11S12129   1.164   7.614   4.527  1.6953 -0.2318  0.9912
   91POPC  C21212130   1.112   7.491   4.369  0.0882  0.2381 -0.0995
   91POPC  H12R12131   1.157   7.452   4.275  0.4244  0.9920 -0.2532
   91POPC  H12S12132   1.032   7.553   4.323  1.2081  1.3232 -0.5926
   91POPC  C21312133   1.061   7.375   4.454 -0.3153  0.5259  0.0534
   91POPC  H13R12134   1.015   7.423   4.543 -0.8014  1.0763 -0.4939
   91POPC  H13S12135   1.139   7.309   4.496 -1.7560 -0.2696  1.5549
   91POPC  C21412136   0.951   7.290   4.389  0.0524 -0.0947  0.2402
   91POPC  H14R12137   0.997   7.234   4.305 -1.2288  1.2516 -1.4099
   91POPC  H14S12138   0.865   7.347   4.349  0.5266 -0.9856 -2.1403
   91POPC  C21512139   0.892   7.187   4.486 -0.0792 -0.0215  0.2376
   91POPC  H15R12140   0.977   7.131   4.531  0.3135  1.0761  0.8998
   91POPC  H15S12141   0.830   7.116   4.427  1.4679 -0.4027 -0.9688
   91POPC  C21612142   0.802   7.251   4.592 -0.5149 -0.1713 -0.0435
   91POPC  H16R12143   0.741   7.324   4.534 -1.3136 -1.6713 -1.1236
   91POPC  H16S12144   0.880   7.300   4.655 -0.9895  1.4388 -0.6604
   91POPC  C21712145   0.727   7.145   4.672 -0.4256 -0.6792 -0.6262
   91POPC  H17R12146   0.787   7.099   4.754 -0.8509  0.0103  0.0804
   91POPC  H17S12147   0.685   7.065   4.608 -1.0700  0.8893 -2.2173
   91POPC  C21812148   0.617   7.216   4.750  0.0341  0.1401 -0.7185
   91POPC  H18R12149   0.580   7.151   4.832 -0.2600  1.4192  0.1826
   91POPC  H18S12150   0.537   7.258   4.685 -1.6334  0.4369  1.4371
   91POPC  H18T12151   0.656   7.309   4.796 -3.1172  0.2959  1.8368
   91POPC   C3312152   1.513   0.094   5.017  0.2832 -0.4285  0.3204
   91POPC   H3X12153   1.438   0.175   5.030  0.6260  0.2786 -1.8292
   91POPC   H3Y12154   1.461   7.959   5.007 -0.3675 -0.0731 -0.2622
   91POPC   C3412155   1.595   0.135   4.894  0.2185 -0.7788  0.1603
   91POPC   H4X12156   1.669   0.061   4.858  2.2275  0.7917  0.9932
   91POPC   H4Y12157   1.631   0.237   4.917  0.8752 -1.3406  1.6542
   91POPC   C3512158   1.497   0.152   4.778  0.1208 -0.1394  0.3346
   91POPC   H5X12159   1.422   0.233   4.788  0.9058  0.7652 -0.8788
   91POPC   H5Y12160   1.440   0.060   4.754  1.0795 -0.8860  0.8910
   91POPC   C3612161   1.570   0.193   4.649  0.5659 -0.5843  0.4431
   91POPC   H6X12162   1.485   0.211   4.580 -0.0627 -0.3018  1.2689
   91POPC   H6Y12163   1.643   0.114   4.621  1.7648  0.1577  1.4288
   91POPC   C3712164   1.635   0.332   4.658 -0.5592  0.0206 -0.5945
   91POPC   H7X12165   1.710   0.341   4.740 -0.5277  0.6860 -0.7001
   91POPC   H7Y12166   1.565   0.412   4.691 -2.1135 -0.3934 -2.8065
   91POPC   C3812167   1.718   0.361   4.533  0.1984 -0.0330 -0.1072
   91POPC   H8X12168   1.769   0.272   4.493 -1.0842 -0.2374 -1.3269
   91POPC   H8Y12169   1.800   0.434   4.554  1.1031 -0.6780 -1.3157
   91POPC   C3912170   1.636   0.428   4.423  0.1436 -0.1433 -0.1349
   91POPC   H9X12171   1.620   0.532   4.460  3.2108 -0.3394  1.9045
   91POPC   H9Y12172   1.545   0.365   4.413  0.2001 -0.9479  3.8837
   91POPC  C31012173   1.703   0.436   4.285  0.5372  0.3374  0.0814
   91POPC  H10X12174   1.734   0.334   4.254  0.7567  0.3346  0.3086
   91POPC  H10Y12175   1.795   0.498   4.293  1.0882 -0.9095  4.4633
   91POPC  C31112176   1.618   0.490   4.170  0.3039 -0.4359 -0.1119
   91POPC  H11X12177   1.530   0.421   4.168  0.2882 -0.5009  1.5906
   91POPC  H11Y12178   1.667   0.483   4.071  0.3806 -2.7412  0.0626
   91POPC  C31212179   1.574   0.636   4.185  0.2657 -0.4594  0.0069
   91POPC  H12X12180   1.568   0.631   4.296  0.3434 -0.6072  0.0050
   91POPC  H12Y12181   1.470   0.652   4.150 -0.1747 -1.9887  0.5933
   91POPC  C31312182   1.677   0.739   4.139  0.3384 -0.3256  0.4655
   91POPC  H13X12183   1.683   0.762   4.030 -0.8734  2.5539  0.9571
   91POPC  H13Y12184   1.776   0.710   4.181 -0.3690  1.1003  3.2327
   91POPC  C31412185   1.660   0.878   4.202 -0.2758 -0.3995  0.4663
   91POPC  H14X12186   1.751   0.937   4.180  0.8360 -1.6603  1.6033
   91POPC  H14Y12187   1.643   0.867   4.311 -2.4358  1.1360  0.3093
   91POPC  C31512188   1.539   0.946   4.137  0.0078 -0.1838  0.1620
   91POPC  H15X12189   1.448   0.885   4.158 -0.1491 -0.4953 -1.3500
   91POPC  H15Y12190   1.560   0.947   4.028  1.6721  0.5571  0.4766
   91POPC  C31612191   1.519   1.092   4.176  0.2709 -0.3209  0.8292
   91POPC  H16X12192   1.486   1.098   4.282 -1.8046  1.5456  0.1245
   91POPC  H16Y12193   1.435   1.141   4.122  0.0015 -2.4355 -0.7426
   91POPC  H16Z12194   1.611   1.153   4.169  0.4927 -0.4692  2.3624
   92POPC     N12195   6.126   7.418   6.421 -0.1074 -0.0256 -0.0478
   92POPC   C1212196   6.023   7.361   6.326 -0.0469 -0.0502 -0.0975
   92POPC  H12A12200   5.966   7.285   6.376  0.4830 -0.3329  0.0822
   92POPC  H12B12201   6.075   7.312   6.246 -0.4609 -2.6441  1.1902
   92POPC   C1312197   6.208   7.306   6.480  0.5756  0.5319  0.0724
   92POPC  H13A12202   6.270   7.256   6.407  0.8875  1.1109 -0.0615
   92POPC  H13B12203   6.264   7.349   6.561  2.1285 -0.9796 -0.1836
   92POPC  H13C12204   6.145   7.233   6.529  0.6800  0.6979  0.4581
   92POPC   C1412198   6.231   7.498   6.347  0.5138 -0.6126  0.2009
   92POPC  H14A12205   6.191   7.578   6.287  1.0286  0.8674  1.8159
   92POPC  H14B12206   6.288   7.537   6.430 -1.3029 -0.8206  1.5785
   92POPC  H14C12207   6.299   7.435   6.291 -1.2239 -0.8002 -1.7891
   92POPC   C1512199   6.065   7.509   6.525 -0.2609  0.2079 -0.3389
   92POPC  H15A12208   6.148   7.544   6.586 -0.4770 -1.4913  0.9616
   92POPC  H15B12209   6.014   7.437   6.588 -1.7368  0.3772 -1.3215
   92POPC  H15C12210   5.994   7.581   6.487 -0.5135  0.1258 -0.0282
   92POPC   C1112211   5.945   7.463   6.242  0.0056 -0.3802 -0.5440
   92POPC  H11A12212   5.899   7.539   6.308 -1.5583 -1.0965 -0.7842
   92POPC  H11B12213   5.864   7.415   6.183 -1.5567  1.0360  0.4219
   92POPC     P12214   5.958   7.653   6.067  0.0225 -0.2399 -0.3228
   92POPC   O1312215   5.971   7.768   6.160  0.4089 -0.2760 -0.3308
   92POPC   O1412216   5.825   7.624   6.008 -0.3873  0.5851  0.1811
   92POPC   O1212217   6.023   7.527   6.141  0.4777  0.3318  0.2642
   92POPC   O1112218   6.068   7.674   5.953 -0.1832  0.6185 -0.3657
   92POPC    C112219   6.048   7.585   5.843  0.3769  0.6054 -0.4602
   92POPC    HA12220   5.999   7.644   5.763 -0.6556  1.4703  0.7853
   92POPC    HB12221   5.980   7.501   5.870  0.3864  0.3676 -1.1740
   92POPC    C212222   6.180   7.518   5.802  0.3924  0.3708 -0.0374
   92POPC    HS12223   6.216   7.444   5.877  0.3801  0.4856  0.0831
   92POPC   O2112224   6.282   7.618   5.790  0.5576  0.1852 -0.1682
   92POPC   C2112225   6.406   7.576   5.765  0.7346  0.0350  0.9484
   92POPC   O2212226   6.441   7.459   5.773  1.0778  0.0469 -0.2772
   92POPC   C2212227   6.494   7.699   5.753 -0.3814  0.7426 -0.0404
   92POPC   H2R12228   6.560   7.698   5.842  1.7736  2.2589 -1.5549
   92POPC   H2S12229   6.435   7.793   5.748  0.1969  1.0372 -1.5982
   92POPC    C312230   6.162   7.437   5.673  0.0665  0.3290  0.0334
   92POPC    HX12231   6.068   7.378   5.672  0.3616 -0.1410 -0.9359
   92POPC    HY12232   6.238   7.357   5.680 -2.0867 -1.8328 -0.6201
   92POPC   O3112233   6.187   7.510   5.552  0.0223  0.3836  0.0575
   92POPC   C3112234   6.080   7.549   5.482  0.0038  0.0534 -0.0976
   92POPC   O3212235   5.965   7.534   5.519  0.0457  0.3130  0.1439
   92POPC   C3212236   6.122   7.624   5.357 -0.3241  0.4773  0.0439
   92POPC   H2X12237   6.213   7.572   5.320 -0.9232 -1.1032  0.7651
   92POPC   H2Y12238   6.143   7.731   5.379  2.3964  0.0935 -0.4740
   92POPC   C2312239   6.579   7.688   5.626 -0.3498  0.3539  0.0122
   92POPC   H3R12240   6.642   7.598   5.636  0.3368  0.5237 -2.4022
   92POPC   H3S12241   6.643   7.779   5.618  0.0119  0.2393  1.4486
   92POPC   C2412242   6.501   7.689   5.494 -0.1415  0.2142 -0.1125
   92POPC   H4R12243   6.453   7.789   5.489 -1.7763 -0.5468 -0.1083
   92POPC   H4S12244   6.424   7.611   5.514  3.2692 -2.9133  1.4365
   92POPC   C2512245   6.580   7.672   5.365  0.3106  0.6061  0.1148
   92POPC   H5R12246   6.612   7.567   5.348  0.9567  0.6778  0.8522
   92POPC   H5S12247   6.670   7.738   5.365  0.9542 -0.2240 -2.1042
   92POPC   C2612248   6.500   7.714   5.242  0.0914  0.1384  0.0981
   92POPC   H6R12249   6.459   7.818   5.248  0.5976  0.2045  3.0244
   92POPC   H6S12250   6.418   7.640   5.243 -1.0737  1.3563 -1.3833
   92POPC   C2712251   6.582   7.704   5.113 -0.2039 -0.2807 -0.0587
   92POPC   H7R12252   6.609   7.596   5.111 -0.6956 -0.3787 -3.0682
   92POPC   H7S12253   6.672   7.767   5.126  1.5499 -2.5736 -0.7668
   92POPC   C2812254   6.507   7.740   4.985  0.4349  0.2052 -0.2963
   92POPC   H8R12255   6.422   7.669   4.988  2.2316 -1.9472  2.0127
   92POPC   H8S12256   6.562   7.700   4.898  2.8224  1.1526  0.7348
   92POPC   C2912257   6.464   7.884   4.977  0.0842  0.1294  0.1770
   92POPC   H9112258   6.369   7.903   5.029  0.2988 -3.2089  1.9416
   92POPC  C21012259   6.517   0.024   4.908  0.0988 -0.0492 -0.1410
   92POPC  H10112260   6.471   0.124   4.905  2.1428  0.8921 -1.5613
   92POPC  C21112261   6.645   0.002   4.832  0.2324  0.0524  0.0533
   92POPC  H11R12262   6.681   7.861   4.813  0.4343  0.5398 -2.6519
   92POPC  H11S12263   6.727   0.057   4.884 -0.5661  0.0219  1.3742
   92POPC  C21212264   6.642   0.069   4.695  0.2812  0.2858  0.1660
   92POPC  H12R12265   6.587   0.165   4.700  1.6265  1.1741 -1.3630
   92POPC  H12S12266   6.570   0.005   4.639 -0.3946  0.7992  0.3996
   92POPC  C21312267   6.779   0.066   4.625 -0.2619 -0.0997 -0.9005
   92POPC  H13R12268   6.766   0.092   4.518  0.5736 -2.0742 -1.5049
   92POPC  H13S12269   6.840   7.935   4.632  1.3760  1.1327  4.3391
   92POPC  C21412270   6.860   0.183   4.680 -0.1925 -0.4045 -0.3479
   92POPC  H14R12271   6.884   0.171   4.788 -1.5788  1.0137  0.1406
   92POPC  H14S12272   6.788   0.268   4.683  2.8416  2.2780  0.7607
   92POPC  C21512273   6.985   0.204   4.593 -0.2417 -0.0760 -0.3402
   92POPC  H15R12274   6.946   0.207   4.489  0.0078 -0.3507 -0.4402
   92POPC  H15S12275   7.050   0.115   4.593 -2.7244 -2.0091 -3.2358
   92POPC  C21612276   7.057   0.336   4.620 -0.1544 -0.2426  0.2427
   92POPC  H16R12277   7.082   0.331   4.729 -0.3080  2.8833  0.4652
   92POPC  H16S12278   6.993   0.423   4.596 -0.2954 -0.8606 -1.7050
   92POPC  C21712279   7.182   0.348   4.533 -0.3655 -0.5602 -0.1006
   92POPC  H17R12280   7.251   0.261   4.542 -0.1842 -0.3668  0.3622
   92POPC  H17S12281   7.240   0.432   4.575 -0.5801 -1.4839  2.1128
   92POPC  C21812282   7.143   0.360   4.386 -0.0805  0.0070 -0.1309
   92POPC  H18R12283   7.234   0.359   4.322  0.8329 -0.7241  1.1664
   92POPC  H18S12284   7.087   0.455   4.374 -1.4231 -0.2939  3.3444
   92POPC  H18T12285   7.087   0.273   4.343 -0.8849 -1.3036  3.4349
   92POPC   C3312286   6.021   7.603   5.244  0.0792 -0.2608 -0.1882
   92POPC   H3X12287   5.920   7.633   5.281 -0.1087  0.7965 -1.5137
   92POPC   H3Y12288   6.026   7.496   5.215  0.1346 -0.6977  1.3590
   92POPC   C3412289   6.046   7.689   5.120 -0.1219 -0.2809 -0.2430
   92POPC   H4X12290   5.966   7.655   5.051  0.8957 -4.7726  0.6092
   92POPC   H4Y12291   6.144   7.652   5.081 -0.3830 -0.5217 -0.6794
   92POPC   C3512292   6.044   7.842   5.130  1.0772 -0.2576 -0.2271
   92POPC   H5X12293   6.122   7.877   5.201 -1.6118  1.4371  2.0388
   92POPC   H5Y12294   5.953   7.884   5.178  2.1124  1.8496 -0.0548
   92POPC   C3612295   6.070   7.905   4.994  0.6787 -0.4254 -0.3842
   92POPC   H6X12296   5.980   7.872   4.938 -0.1017 -2.0224  1.7845
   92POPC   H6Y12297   6.161   7.858   4.950  1.4194  1.0281 -0.4475
   92POPC   C3712298   6.092   0.094   5.002  0.7821 -0.4499  0.5568
   92POPC   H7X12299   6.176   0.115   5.072  0.0687  2.6993  0.5410
   92POPC   H7Y12300   6.004   0.147   5.044  0.8235  0.9408 -1.0633
   92POPC   C3812301   6.145   0.159   4.874 -0.0191 -0.6386  0.1232
   92POPC   H8X12302   6.256   0.155   4.878  0.1425  2.4481 -0.3434
   92POPC   H8Y12303   6.129   0.269   4.871 -0.6576 -0.7318  0.0406
   92POPC   C3912304   6.097   0.108   4.738 -0.0267  0.0388 -0.1289
   92POPC   H9X12305   5.986   0.117   4.744  0.1747  1.3480  3.0128
   92POPC   H9Y12306   6.117   7.962   4.725 -1.4020 -0.2416 -0.0143
   92POPC  C31012307   6.147   0.190   4.620  0.1439  0.1330  0.0091
   92POPC  H10X12308   6.092   0.287   4.620 -1.4186 -0.7389  0.9117
   92POPC  H10Y12309   6.110   0.136   4.531  1.0304  0.9364 -0.8751
   92POPC  C31112310   6.299   0.209   4.610  0.2810 -0.6158  0.6727
   92POPC  H11X12311   6.341   0.107   4.593  1.1434  0.0529 -1.2865
   92POPC  H11Y12312   6.339   0.266   4.697  2.0767 -1.3629  0.3514
   92POPC  C31212313   6.351   0.304   4.503 -0.4412 -0.8563  0.1046
   92POPC  H12X12314   6.460   0.312   4.525 -0.2225 -1.9210 -0.5270
   92POPC  H12Y12315   6.309   0.406   4.515 -1.1405 -1.0798 -0.3832
   92POPC  C31312316   6.339   0.269   4.354  0.1546  0.5402 -0.2864
   92POPC  H13X12317   6.372   0.165   4.332  1.7489  1.7133 -3.6648
   92POPC  H13Y12318   6.410   0.338   4.304  0.2674  0.3159 -0.4352
   92POPC  C31412319   6.201   0.297   4.293 -0.2454 -0.5104  0.1245
   92POPC  H14X12320   6.154   0.383   4.345  0.3921  0.2798 -0.5929
   92POPC  H14Y12321   6.142   0.203   4.299  1.6005 -1.6557  0.7502
   92POPC  C31512322   6.215   0.321   4.143  0.0669 -0.3410  0.1777
   92POPC  H15X12323   6.276   0.235   4.108 -0.0226  0.1651 -1.2680
   92POPC  H15Y12324   6.286   0.404   4.124 -0.7920  0.2068 -0.7269
   92POPC  C31612325   6.074   0.316   4.085  0.0316  0.0422  0.2335
   92POPC  H16X12326   6.084   0.310   3.974  0.4606 -1.2425  0.3378
   92POPC  H16Y12327   6.030   0.413   4.118  1.8369  0.5291  1.2903
   92POPC  H16Z12328   6.021   0.225   4.120  0.6850 -1.0995 -1.6447
   93POPC     N12329   5.541   2.251   7.001  0.0780  0.3038  0.3878
   93POPC   C1212330   5.652   2.180   6.927 -0.3018  0.0403  0.0644
   93POPC  H12A12334   5.699   2.110   6.995  0.1848 -0.2970 -0.6144
   93POPC  H12B12335   5.725   2.257   6.906  1.7450 -1.6708  0.7091
   93POPC   C1312331   5.585   2.266   7.144  0.0727  0.6604  0.3550
   93POPC  H13A12336   5.636   2.175   7.175  0.0426  0.4122 -0.3206
   93POPC  H13B12337   5.656   2.347   7.147  1.3248 -0.3192 -1.8351
   93POPC  H13C12338   5.497   2.284   7.204  0.0014 -0.0661  0.4693
   93POPC   C1412332   5.522   2.388   6.939  0.5065  0.4439  0.5667
   93POPC  H14A12339   5.448   2.441   6.997  2.6078  1.9341  1.9529
   93POPC  H14B12340   5.615   2.443   6.929 -0.6762  1.8663 -3.4806
   93POPC  H14C12341   5.482   2.378   6.839  1.4390  0.9311  0.1367
   93POPC   C1512333   5.411   2.175   6.987  0.4069 -0.3680  0.9768
   93POPC  H15A12342   5.344   2.220   7.059 -2.5651 -2.7289 -0.2197
   93POPC  H15B12343   5.431   2.073   7.014 -0.0258 -1.1500 -1.5409
   93POPC  H15C12344   5.376   2.189   6.886 -0.3251 -1.7355  1.0315
   93POPC   C1112345   5.622   2.119   6.790 -0.8203 -0.0718  0.2303
   93POPC  H11A12346   5.542   2.042   6.803 -0.5435 -0.9513 -3.0182
   93POPC  H11B12347   5.714   2.072   6.749 -1.6191 -1.3256 -0.1457
   93POPC     P12348   5.604   2.209   6.560 -0.2353 -0.1049  0.0255
   93POPC   O1312349   5.744   2.254   6.541 -0.3250  0.1895  0.0567
   93POPC   O1412350   5.509   2.284   6.475  0.2922 -0.0710 -0.5463
   93POPC   O1212351   5.563   2.224   6.713  0.2165  0.4162  0.0979
   93POPC   O1112352   5.590   2.053   6.530 -0.3891 -0.0003 -0.4652
   93POPC    C112353   5.700   1.981   6.473 -0.3362 -0.1785 -0.1394
   93POPC    HA12354   5.683   1.871   6.468 -2.6468  0.1160  0.5395
   93POPC    HB12355   5.791   1.991   6.535 -0.3020  0.8105 -0.3392
   93POPC    C212356   5.729   2.019   6.327 -0.5307 -0.3173 -0.2143
   93POPC    HS12357   5.790   2.112   6.333 -1.0500 -0.0005  0.1848
   93POPC   O2112358   5.608   2.039   6.255 -0.7284 -0.0943  0.1747
   93POPC   C2112359   5.615   2.144   6.172  0.2019 -0.1087  0.2403
   93POPC   O2212360   5.709   2.219   6.152 -0.2712  0.2785 -0.5566
   93POPC   C2212361   5.483   2.165   6.100  0.3408 -0.1709 -0.0324
   93POPC   H2R12362   5.470   2.266   6.056 -0.1976  0.7312  2.1826
   93POPC   H2S12363   5.398   2.144   6.168  1.4511 -0.9020  1.1421
   93POPC    C312364   5.799   1.907   6.250 -0.2764 -0.3507  0.0631
   93POPC    HX12365   5.715   1.846   6.212  0.0785 -1.2005  0.6263
   93POPC    HY12366   5.871   1.847   6.310 -1.0802 -1.3839  0.0090
   93POPC   O3112367   5.868   1.953   6.133  0.1145 -0.3618  0.2885
   93POPC   C3112368   5.932   1.858   6.065  0.3411  0.2653 -0.3796
   93POPC   O3212369   5.947   1.743   6.103 -0.2006  0.2880 -0.0930
   93POPC   C3212370   5.980   1.921   5.935  0.7873  0.4233 -0.1402
   93POPC   H2X12371   6.090   1.921   5.949  0.7402 -1.1397  0.3445
   93POPC   H2Y12372   5.943   2.023   5.914 -1.2596  0.0841  1.6188
   93POPC   C2312373   5.483   2.061   5.987  0.0212 -0.2726  0.0620
   93POPC   H3R12374   5.389   2.055   5.928  0.8151 -1.0179 -1.1312
   93POPC   H3S12375   5.483   1.960   6.032  0.3487 -0.5645 -0.5924
   93POPC   C2412376   5.571   2.073   5.863 -0.3201 -0.5301 -0.2051
   93POPC   H4R12377   5.546   1.986   5.798 -0.1284 -1.2737  0.7071
   93POPC   H4S12378   5.680   2.062   5.879 -0.1402  1.0380 -0.3017
   93POPC   C2512379   5.545   2.200   5.782  0.1798 -0.2323  0.1020
   93POPC   H5R12380   5.560   2.295   5.838  1.1154 -1.1721  1.4630
   93POPC   H5S12381   5.439   2.195   5.748  0.4787  0.4339 -0.9698
   93POPC   C2612382   5.634   2.214   5.658  0.1678  0.1554  0.1374
   93POPC   H6R12383   5.612   2.312   5.610 -1.2126 -0.3154 -0.2290
   93POPC   H6S12384   5.621   2.137   5.579 -1.3426  1.8053 -1.2699
   93POPC   C2712385   5.783   2.223   5.690  0.2259  0.2922 -0.1749
   93POPC   H7R12386   5.813   2.120   5.719  0.8450  0.0120 -1.7381
   93POPC   H7S12387   5.781   2.289   5.780  3.4324 -0.0887  0.2375
   93POPC   C2812388   5.875   2.283   5.583  0.0862  0.0097 -0.4527
   93POPC   H8R12389   5.858   2.216   5.496 -2.5887  1.5987 -1.2175
   93POPC   H8S12390   5.980   2.272   5.617 -1.3622 -0.0563  4.2800
   93POPC   C2912391   5.833   2.423   5.551 -0.3243 -0.0045  0.0092
   93POPC   H9112392   5.780   2.494   5.616 -0.1441  1.8359 -1.8097
   93POPC  C21012393   5.864   2.480   5.433 -0.3333  0.1701  0.0915
   93POPC  H10112394   5.824   2.582   5.424  0.7811  0.6506  0.4182
   93POPC  C21112395   5.927   2.422   5.310  0.4006  0.7215  0.2053
   93POPC  H11R12396   5.977   2.323   5.319 -1.9518 -0.7490 -2.0826
   93POPC  H11S12397   6.013   2.488   5.283  0.6056  1.1825  1.9335
   93POPC  C21212398   5.827   2.424   5.194  0.1350 -0.0273  0.4143
   93POPC  H12R12399   5.882   2.429   5.098 -1.1757  0.6382 -0.3175
   93POPC  H12S12400   5.763   2.515   5.201 -3.1158 -2.3779  2.5771
   93POPC  C21312401   5.728   2.308   5.196  0.2000 -0.0884 -0.0662
   93POPC  H13R12402   5.658   2.309   5.282  1.2845 -4.2876  0.9455
   93POPC  H13S12403   5.779   2.211   5.214 -0.2251  0.0231  1.8392
   93POPC  C21412404   5.649   2.311   5.064 -0.2732  0.3664  0.2257
   93POPC  H14R12405   5.722   2.283   4.985  2.7136  0.9776  2.6535
   93POPC  H14S12406   5.607   2.412   5.047 -0.9626  0.5826  2.9769
   93POPC  C21512407   5.527   2.219   5.063 -0.2358  0.3138  0.3787
   93POPC  H15R12408   5.445   2.253   5.131 -1.8744 -0.4302 -1.1809
   93POPC  H15S12409   5.559   2.116   5.089  0.7304  0.8812  1.4883
   93POPC  C21612410   5.470   2.227   4.921  0.3855  0.0836  0.1173
   93POPC  H16R12411   5.465   2.330   4.879  0.2709  0.0321  0.0078
   93POPC  H16S12412   5.366   2.190   4.912  1.0380 -1.9666  0.8737
   93POPC  C21712413   5.549   2.137   4.826 -0.2010 -0.4792  0.1611
   93POPC  H17R12414   5.585   2.042   4.872 -3.9681 -0.7658  2.7981
   93POPC  H17S12415   5.640   2.194   4.797  0.5932 -1.8893 -0.1528
   93POPC  C21812416   5.484   2.097   4.695  0.2180  0.4433 -0.3352
   93POPC  H18R12417   5.551   2.021   4.649 -0.4478 -0.2477 -0.1850
   93POPC  H18S12418   5.479   2.180   4.621  0.5969  0.2489 -0.5791
   93POPC  H18T12419   5.385   2.049   4.712  0.2996  0.5780  0.5336
   93POPC   C3312420   5.943   1.835   5.813  0.1351  0.3349  0.1171
   93POPC   H3X12421   5.834   1.833   5.792 -0.2292  3.7122  1.4378
   93POPC   H3Y12422   5.967   1.731   5.844  1.5341  1.0569  1.5480
   93POPC   C3412423   6.016   1.879   5.686 -0.0358  0.3960  0.0406
   93POPC   H4X12424   6.121   1.909   5.710 -0.0239 -0.0414  0.5648
   93POPC   H4Y12425   5.956   1.964   5.646  1.0590  2.6044  2.8883
   93POPC   C3512426   6.004   1.773   5.577 -0.0516  0.1556  0.2727
   93POPC   H5X12427   5.899   1.758   5.543  0.3218  0.1011 -0.8744
   93POPC   H5Y12428   6.038   1.678   5.623 -0.7754  0.2967  1.1063
   93POPC   C3612429   6.094   1.817   5.461 -1.0268 -0.3862 -0.6958
   93POPC   H6X12430   6.096   1.731   5.390  2.4581 -1.7425  0.9352
   93POPC   H6Y12431   6.194   1.811   5.508 -0.8659  1.2937 -0.8179
   93POPC   C3712432   6.059   1.946   5.388 -0.2251  0.1680 -0.1070
   93POPC   H7X12433   6.072   2.040   5.446  0.8125  0.2045 -0.3971
   93POPC   H7Y12434   5.951   1.944   5.362 -0.4339 -0.1059  0.7834
   93POPC   C3812435   6.156   1.945   5.270 -0.1397 -0.0154 -0.0350
   93POPC   H8X12436   6.164   1.842   5.228 -2.3257 -0.0935 -0.2940
   93POPC   H8Y12437   6.257   1.975   5.305 -0.4633  3.7549 -2.0896
   93POPC   C3912438   6.126   2.047   5.160 -0.2422  0.3055  0.2904
   93POPC   H9X12439   6.082   2.138   5.207  1.6988  0.7443  1.2833
   93POPC   H9Y12440   6.035   2.011   5.107  0.8763 -0.6796 -0.9822
   93POPC  C31012441   6.223   2.075   5.046  0.0962 -0.0021  0.5005
   93POPC  H10X12442   6.238   1.973   5.005  0.0348 -0.1040  0.7329
   93POPC  H10Y12443   6.327   2.103   5.072  0.8202  0.5622 -2.6881
   93POPC  C31112444   6.163   2.182   4.954 -0.5916 -0.6676  0.1691
   93POPC  H11X12445   6.058   2.158   4.928 -2.1208  2.4924  3.0071
   93POPC  H11Y12446   6.209   2.182   4.854 -1.0643  4.5151 -0.1831
   93POPC  C31212447   6.186   2.323   5.009 -0.7606 -0.1500 -1.0709
   93POPC  H12X12448   6.297   2.328   5.013 -0.7142 -1.9363  2.0048
   93POPC  H12Y12449   6.152   2.330   5.115  1.4368  0.1774 -0.3504
   93POPC  C31312450   6.136   2.433   4.915  0.0837  0.4956 -0.7763
   93POPC  H13X12451   6.027   2.424   4.894 -0.1786  0.2921  0.6334
   93POPC  H13Y12452   6.186   2.419   4.817  0.6484 -2.8573 -0.0852
   93POPC  C31412453   6.186   2.567   4.968  0.1874  0.2222 -0.1768
   93POPC  H14X12454   6.294   2.551   4.987  0.3481 -0.6903 -1.8070
   93POPC  H14Y12455   6.152   2.560   5.074  3.1950 -0.9409  0.7552
   93POPC  C31512456   6.138   2.689   4.889 -0.1992  0.0836 -0.1571
   93POPC  H15X12457   6.028   2.671   4.882 -0.5065  1.9344 -0.3619
   93POPC  H15Y12458   6.179   2.687   4.786 -2.1709 -0.5639 -0.9667
   93POPC  C31612459   6.165   2.826   4.952 -0.0994 -0.2037  0.4303
   93POPC  H16X12460   6.111   2.841   5.048 -0.7041 -2.8319  0.5273
   93POPC  H16Y12461   6.118   2.908   4.893 -3.1827 -2.0733  0.1693
   93POPC  H16Z12462   6.275   2.841   4.954  0.0827 -1.6037  1.7372
   94POPC     N12463   0.160   5.193   6.488 -0.3212 -0.2984 -0.2010
   94POPC   C1212464   0.232   5.137   6.368  0.4368  0.2443  0.0007
   94POPC  H12A12468   0.156   5.084   6.312 -0.6998  1.2055  0.6180
   94POPC  H12B12469   0.297   5.057   6.400 -1.0245 -1.0206 -0.1333
   94POPC   C1312465   0.252   5.276   6.574  0.0444 -0.6221 -0.2812
   94POPC  H13A12470   0.319   5.204   6.620  1.1632 -0.0790 -1.0585
   94POPC  H13B12471   0.315   5.340   6.515 -0.1641 -1.2107 -1.1426
   94POPC  H13C12472   0.199   5.327   6.653  2.4524  0.7396  0.4860
   94POPC   C1412466   0.038   5.274   6.452 -0.1725 -0.0055 -0.0414
   94POPC  H14A12473   7.935   5.218   6.387  3.0320 -1.3893 -2.1842
   94POPC  H14B12474   7.949   5.311   6.540  1.0495  1.4057  0.1147
   94POPC  H14C12475   0.067   5.360   6.394  2.4411 -0.8351  0.0033
   94POPC   C1512467   0.110   5.080   6.575 -0.3310  0.3991  0.7121
   94POPC  H15A12476   0.074   5.130   6.663 -1.6950  0.2645  0.2392
   94POPC  H15B12477   0.199   5.019   6.588 -0.0437  0.1415 -2.0566
   94POPC  H15C12478   0.038   5.020   6.521 -1.6391  1.7721  0.9220
   94POPC   C1112479   0.308   5.226   6.270  0.3130  0.0319 -0.2880
   94POPC  H11A12480   0.327   5.167   6.178  0.0720 -0.3283 -0.1066
   94POPC  H11B12481   0.410   5.254   6.304 -0.0636  0.4135  0.5337
   94POPC     P12482   0.315   5.465   6.174 -0.1251  0.0013  0.3204
   94POPC   O1312483   0.438   5.408   6.114 -0.2538  0.3313 -0.2615
   94POPC   O1412484   0.337   5.584   6.260  0.2414  0.4050 -0.3222
   94POPC   O1212485   0.236   5.348   6.248 -0.1619 -0.2050 -0.0428
   94POPC   O1112486   0.211   5.497   6.056  0.0718  0.1138  0.1761
   94POPC    C112487   0.173   5.391   5.968  0.1300 -0.0123  0.3009
   94POPC    HA12488   0.068   5.414   5.938  0.5644  1.8472  0.1725
   94POPC    HB12489   0.175   5.295   6.024  2.1693 -0.8713 -1.2025
   94POPC    C212490   0.248   5.376   5.835 -0.4124  0.2865 -0.0385
   94POPC    HS12491   0.354   5.379   5.867 -0.5299 -0.2227  0.3893
   94POPC   O2112492   0.211   5.486   5.750 -0.1837  0.3038 -0.1175
   94POPC   C2112493   0.309   5.530   5.671 -0.1428 -0.4545 -0.4927
   94POPC   O2212494   0.425   5.492   5.673 -0.0954 -0.2882  0.1262
   94POPC   C2212495   0.246   5.629   5.575 -0.2376 -0.6302 -0.6126
   94POPC   H2R12496   0.237   5.729   5.623 -1.7176 -1.3735  0.7194
   94POPC   H2S12497   0.144   5.594   5.547 -0.4866 -1.0712  0.8136
   94POPC    C312498   0.222   5.235   5.781  0.2667  0.2868 -0.3674
   94POPC    HX12499   0.115   5.208   5.797 -0.1211  1.7368 -0.4444
   94POPC    HY12500   0.277   5.164   5.846 -2.1968 -1.6976 -0.3572
   94POPC   O3112501   0.253   5.226   5.641 -0.0814 -0.6582 -0.3885
   94POPC   C3112502   0.376   5.190   5.606 -0.0866 -1.0810  0.0125
   94POPC   O3212503   0.466   5.161   5.683  0.0955 -0.4686  0.0397
   94POPC   C3212504   0.384   5.171   5.455  0.1868 -0.5099 -0.0478
   94POPC   H2X12505   0.322   5.252   5.410 -0.3033 -1.4546 -1.0776
   94POPC   H2Y12506   0.346   5.069   5.434 -1.4178  0.1922 -0.6623
   94POPC   C2312507   0.325   5.637   5.444  0.4053 -0.4338 -0.2113
   94POPC   H3R12508   0.342   5.537   5.398 -0.3000 -0.9503  0.6259
   94POPC   H3S12509   0.430   5.670   5.462 -0.1169  0.0275  2.2626
   94POPC   C2412510   0.261   5.726   5.338  0.4642 -0.9634 -0.6950
   94POPC   H4R12511   0.252   5.828   5.383 -0.9783 -1.4907  0.2475
   94POPC   H4S12512   0.160   5.699   5.302 -0.5109  0.2337  1.0628
   94POPC   C2512513   0.356   5.736   5.219  0.4939 -0.7132 -0.6504
   94POPC   H5R12514   0.301   5.755   5.124  0.5167 -0.1799 -0.5610
   94POPC   H5S12515   0.392   5.631   5.214  0.5611 -0.8358  1.8006
   94POPC   C2612516   0.477   5.829   5.232  0.2738 -0.5642  0.3366
   94POPC   H6R12517   0.511   5.824   5.338 -1.3835 -4.2095  0.7528
   94POPC   H6S12518   0.419   5.921   5.211 -1.9132 -2.0829 -0.3951
   94POPC   C2712519   0.591   5.803   5.133 -0.0917  0.2112 -0.2971
   94POPC   H7R12520   0.619   5.897   5.082  0.8955  0.1011  0.0259
   94POPC   H7S12521   0.539   5.737   5.060 -1.8396 -0.8821  1.8649
   94POPC   C2812522   0.701   5.719   5.200 -0.3315 -0.0299 -0.2062
   94POPC   H8R12523   0.642   5.636   5.246  1.0479 -1.5586 -1.1368
   94POPC   H8S12524   0.757   5.776   5.277  1.7523 -3.1855  0.7143
   94POPC   C2912525   0.790   5.656   5.097 -0.6355  0.0612 -0.5284
   94POPC   H9112526   0.749   5.561   5.059  1.0219 -0.7612 -0.3464
   94POPC  C21012527   0.902   5.704   5.041 -0.5423  0.4855  0.0245
   94POPC  H10112528   0.967   5.642   4.979 -0.0022  1.6217 -0.5736
   94POPC  C21112529   0.978   5.828   5.081 -0.4870  0.4775 -0.0570
   94POPC  H11R12530   1.046   5.800   5.164 -0.0468 -0.6794 -0.7925
   94POPC  H11S12531   0.906   5.903   5.120 -0.9538  0.1238 -0.2307
   94POPC  C21212532   1.054   5.875   4.957 -0.1010 -0.5519 -0.2097
   94POPC  H12R12533   1.002   5.860   4.860 -0.4804 -1.1387  0.0780
   94POPC  H12S12534   1.145   5.810   4.958  0.3265  0.0505  0.2304
   94POPC  C21312535   1.095   6.022   4.963 -0.0874 -0.5388 -0.6184
   94POPC  H13R12536   1.173   6.025   5.042 -1.5841 -1.6287  0.9320
   94POPC  H13S12537   1.019   6.091   5.004  1.3585  0.1187  1.0184
   94POPC  C21412538   1.150   6.080   4.833  0.5947  0.0067 -0.0896
   94POPC  H14R12539   1.071   6.087   4.756 -1.0440 -0.7001  1.5146
   94POPC  H14S12540   1.238   6.034   4.782 -1.5251 -1.7793 -2.2869
   94POPC  C21512541   1.170   6.232   4.839 -0.3167  0.1489 -0.6183
   94POPC  H15R12542   1.244   6.259   4.917  1.5106 -2.5534 -1.3260
   94POPC  H15S12543   1.079   6.285   4.874 -0.6862 -0.4112 -0.7226
   94POPC  C21612544   1.214   6.285   4.702  0.4074 -0.2406 -0.5355
   94POPC  H16R12545   1.135   6.281   4.625  0.0890 -0.5238 -0.2006
   94POPC  H16S12546   1.299   6.219   4.674 -0.3148 -1.5200  0.2649
   94POPC  C21712547   1.271   6.424   4.731 -0.3973 -0.0659  0.2514
   94POPC  H17R12548   1.374   6.411   4.772  0.0329  2.5753  0.1005
   94POPC  H17S12549   1.202   6.462   4.809 -0.7436 -2.7357  1.2889
   94POPC  C21812550   1.289   6.512   4.607 -0.3896  0.4731  0.6335
   94POPC  H18R12551   1.189   6.555   4.581 -0.6696 -0.0895  0.7668
   94POPC  H18S12552   1.338   6.452   4.528  2.2013  2.4904  0.6751
   94POPC  H18T12553   1.361   6.595   4.623 -0.5045  0.4317  1.3890
   94POPC   C3312554   0.530   5.173   5.409  0.2051 -0.7784  0.0031
   94POPC   H3X12555   0.593   5.110   5.476  1.6156  0.3153 -0.2770
   94POPC   H3Y12556   0.566   5.278   5.403  0.5938 -1.0636 -3.9849
   94POPC   C3412557   0.543   5.119   5.267 -0.4009 -0.0831 -0.3176
   94POPC   H4X12558   0.507   5.014   5.263 -0.3292 -0.0572 -2.6657
   94POPC   H4Y12559   0.651   5.110   5.243 -0.5969 -0.5450 -1.0742
   94POPC   C3512560   0.461   5.185   5.155 -0.0130  0.0930 -0.4986
   94POPC   H5X12561   0.439   5.293   5.167 -1.1467 -0.2410  0.4927
   94POPC   H5Y12562   0.364   5.135   5.137 -1.0178  1.5798  0.7646
   94POPC   C3612563   0.533   5.168   5.021  0.2790  0.2820 -0.3680
   94POPC   H6X12564   0.529   5.062   4.988 -0.2926 -0.3367  1.6486
   94POPC   H6Y12565   0.636   5.202   5.041  0.7701 -0.9831 -0.7310
   94POPC   C3712566   0.465   5.247   4.909 -0.3710  0.4617  0.1500
   94POPC   H7X12567   0.358   5.269   4.932 -0.8785 -0.5866 -1.1063
   94POPC   H7Y12568   0.481   5.196   4.811  1.0985  1.8743 -0.3588
   94POPC   C3812569   0.545   5.376   4.893 -0.1365  0.3354  0.3004
   94POPC   H8X12570   0.583   5.408   4.992 -3.0869 -2.6840  2.5127
   94POPC   H8Y12571   0.467   5.447   4.856  0.9503  1.2724 -0.2097
   94POPC   C3912572   0.660   5.363   4.794 -0.6120  0.3277 -0.2567
   94POPC   H9X12573   0.629   5.313   4.700  3.7661 -3.2562 -0.0077
   94POPC   H9Y12574   0.746   5.301   4.828 -0.8703  0.2676  0.2861
   94POPC  C31012575   0.696   5.506   4.754 -0.0114  0.1802 -0.2543
   94POPC  H10X12576   0.729   5.563   4.844 -1.7307  1.3347 -0.3364
   94POPC  H10Y12577   0.605   5.555   4.714 -0.6933 -0.3029  0.6866
   94POPC  C31112578   0.792   5.524   4.636  0.2101 -0.4530 -0.1702
   94POPC  H11X12579   0.771   5.466   4.544  0.1428  1.1711 -1.1854
   94POPC  H11Y12580   0.880   5.483   4.689 -0.0627  1.2210  1.6492
   94POPC  C31212581   0.806   5.674   4.612  0.1945 -0.4208  0.0246
   94POPC  H12X12582   0.796   5.737   4.703  0.5078  0.0963 -0.2931
   94POPC  H12Y12583   0.719   5.703   4.550 -1.2460 -2.2850  1.1277
   94POPC  C31312584   0.937   5.714   4.544  0.0542 -0.0126 -0.0102
   94POPC  H13X12585   0.938   5.644   4.458  0.1209  1.1695 -0.9742
   94POPC  H13Y12586   1.015   5.690   4.620  0.3791 -1.2148 -0.7055
   94POPC  C31412587   0.940   5.863   4.510  0.0893 -0.1050 -0.4163
   94POPC  H14X12588   0.983   5.918   4.596 -0.7977 -0.1413  0.0586
   94POPC  H14Y12589   0.839   5.902   4.485 -0.3953 -0.5218  0.8376
   94POPC  C31512590   1.014   5.888   4.379  0.0148 -0.1087 -0.4593
   94POPC  H15X12591   0.969   5.822   4.301 -2.2948  1.4718 -0.5081
   94POPC  H15Y12592   1.123   5.869   4.392 -0.1200 -0.8328 -0.3695
   94POPC  C31612593   1.007   6.036   4.343 -0.5768 -0.1513 -0.5284
   94POPC  H16X12594   1.089   6.066   4.274 -0.4984  2.8012  0.7574
   94POPC  H16Y12595   1.029   6.104   4.428 -2.3072 -0.0900 -0.1101
   94POPC  H16Z12596   0.910   6.056   4.293 -1.5370  0.0798  1.3639
   95POPC     N12597   7.386   5.520   6.496  0.0917  0.0475  0.1669
   95POPC   C1212598   7.289   5.627   6.449 -0.2310 -0.3678 -0.1220
   95POPC  H12A12602   7.347   5.718   6.455  3.0316 -2.4161  1.2402
   95POPC  H12B12603   7.214   5.647   6.524 -2.4390 -0.2943 -2.2899
   95POPC   C1312599   7.412   5.516   6.644  0.0690 -0.0667  0.1683
   95POPC  H13A12604   7.493   5.448   6.661  0.6369  0.6300  0.2578
   95POPC  H13B12605   7.432   5.617   6.679 -0.0273  0.4907 -1.3455
   95POPC  H13C12606   7.331   5.477   6.704  0.4893  1.8696  2.0663
   95POPC   C1412600   7.331   5.383   6.462  0.3548 -0.0514  0.1402
   95POPC  H14A12607   7.394   5.300   6.490 -1.2443 -1.8766 -1.5006
   95POPC  H14B12608   7.228   5.376   6.494 -0.3808  0.9500 -1.9386
   95POPC  H14C12609   7.334   5.367   6.356  0.6581  1.6536 -0.1266
   95POPC   C1512601   7.521   5.546   6.435  0.1116 -0.1633  0.1228
   95POPC  H15A12610   7.591   5.475   6.477  1.2601  0.9730  0.1647
   95POPC  H15B12611   7.559   5.640   6.472  0.9402 -1.0609  1.6009
   95POPC  H15C12612   7.509   5.550   6.327  0.7671  0.6936  0.0734
   95POPC   C1112613   7.236   5.610   6.307  0.1123  1.2691 -0.4541
   95POPC  H11A12614   7.195   5.708   6.274 -2.1258  0.4666 -0.1789
   95POPC  H11B12615   7.153   5.536   6.317  1.8801 -1.0255 -2.1212
   95POPC     P12616   7.269   5.518   6.075 -0.1372 -0.2938 -0.2089
   95POPC   O1312617   7.124   5.489   6.089 -0.3535  0.7893 -0.1606
   95POPC   O1412618   7.362   5.419   6.017  0.4173  0.1532 -0.0851
   95POPC   O1212619   7.335   5.571   6.211 -0.2143  0.3334 -0.4132
   95POPC   O1112620   7.268   5.656   5.993 -0.1817 -0.5035 -0.5626
   95POPC    C112621   7.386   5.733   5.968 -0.2124 -0.3697 -0.2950
   95POPC    HA12622   7.468   5.659   5.956 -1.2769 -1.8721  1.3525
   95POPC    HB12623   7.407   5.796   6.057 -1.3391 -4.2793  2.9413
   95POPC    C212624   7.376   5.811   5.836 -0.5131  0.3655  0.1600
   95POPC    HS12625   7.316   5.903   5.856  2.1349  2.1154  0.3218
   95POPC   O2112626   7.319   5.723   5.739 -0.0127  0.2675 -0.0467
   95POPC   C2112627   7.206   5.764   5.681 -0.4184 -0.3439  0.3025
   95POPC   O2212628   7.140   5.857   5.725  0.1526  0.1000  0.2456
   95POPC   C2212629   7.173   5.674   5.563 -0.6476 -0.1233  0.1983
   95POPC   H2R12630   7.165   5.569   5.596  3.2860  0.0080  1.8527
   95POPC   H2S12631   7.245   5.696   5.481 -0.0780 -1.0829  0.4402
   95POPC    C312632   7.507   5.870   5.780 -0.2814 -0.3981 -0.1140
   95POPC    HX12633   7.575   5.785   5.758 -0.3271 -0.4255 -0.1477
   95POPC    HY12634   7.557   5.949   5.841  0.7318 -0.6563 -0.6118
   95POPC   O3112635   7.488   5.929   5.651  0.9671  0.6461  0.1644
   95POPC   C3112636   7.444   6.055   5.647  0.7109  0.5505 -0.0453
   95POPC   O3212637   7.407   6.118   5.745  0.2504 -0.3437  0.3638
   95POPC   C3212638   7.420   6.101   5.504 -0.0321  0.5316  0.0706
   95POPC   H2X12639   7.491   6.040   5.444  0.0255  2.9279 -2.3624
   95POPC   H2Y12640   7.449   6.207   5.486  0.3674  0.8671  2.5040
   95POPC   C2312641   7.032   5.711   5.518 -0.3190 -0.0371 -0.7894
   95POPC   H3R12642   7.037   5.812   5.473  1.7474 -0.0242 -0.5856
   95POPC   H3S12643   6.956   5.714   5.600  0.0720 -0.4188 -0.4130
   95POPC   C2412644   6.977   5.616   5.411 -0.4464 -0.5790 -0.2503
   95POPC   H4R12645   6.932   5.527   5.459 -0.7690  0.0584  0.6401
   95POPC   H4S12646   7.069   5.591   5.353  0.4248 -1.1661  1.3616
   95POPC   C2512647   6.872   5.666   5.311 -0.1620  0.6029  0.0329
   95POPC   H5R12648   6.905   5.757   5.256 -2.0725  0.8656 -0.7121
   95POPC   H5S12649   6.785   5.698   5.372 -0.7333  2.0764 -1.5187
   95POPC   C2612650   6.829   5.559   5.210  0.1621  0.1426  0.3800
   95POPC   H6R12651   6.745   5.604   5.154  1.6606 -0.6714 -2.6079
   95POPC   H6S12652   6.793   5.470   5.266 -0.4631  0.9115  1.2276
   95POPC   C2712653   6.940   5.517   5.114 -0.1343  0.5833 -0.1582
   95POPC   H7R12654   6.997   5.429   5.150  1.3657  2.4841  2.2077
   95POPC   H7S12655   6.989   5.616   5.102  0.6827 -0.0143 -1.9625
   95POPC   C2812656   6.901   5.483   4.970 -0.0796  0.0912 -0.0581
   95POPC   H8R12657   6.998   5.491   4.916  1.2690  1.8084  2.5100
   95POPC   H8S12658   6.839   5.567   4.933 -1.4683  0.7832  3.6247
   95POPC   C2912659   6.840   5.346   4.956  0.0285  0.0005  0.3606
   95POPC   H9112660   6.732   5.339   4.975  0.3529 -0.1672  2.3220
   95POPC  C21012661   6.900   5.229   4.931 -0.3592 -0.0482 -0.3437
   95POPC  H10112662   6.841   5.138   4.912 -1.2226  1.0819 -3.3824
   95POPC  C21112663   7.045   5.220   4.892 -0.2988 -0.7270  0.0285
   95POPC  H11R12664   7.098   5.145   4.954  1.9301  1.5315  0.9317
   95POPC  H11S12665   7.102   5.312   4.914  0.8983 -1.5515  0.4420
   95POPC  C21212666   7.058   5.183   4.744 -0.0098 -0.1971 -0.0797
   95POPC  H12R12667   7.163   5.151   4.724 -0.2405 -0.4840 -0.8718
   95POPC  H12S12668   7.042   5.280   4.692  0.0419  1.2659  2.5528
   95POPC  C21312669   6.965   5.075   4.687  0.1321 -0.2135 -0.2786
   95POPC  H13R12670   6.856   5.096   4.692  0.0722 -0.4846 -0.4701
   95POPC  H13S12671   6.981   4.976   4.735  0.8019 -0.7797 -1.6293
   95POPC  C21412672   6.994   5.045   4.540  0.1934 -0.1093 -0.2878
   95POPC  H14R12673   7.098   5.007   4.540  0.5632  0.8398 -1.9766
   95POPC  H14S12674   6.995   5.142   4.486 -2.5273  0.3166  0.3830
   95POPC  C21512675   6.912   4.930   4.481  0.0394 -0.3980  0.4957
   95POPC  H15R12676   6.810   4.965   4.457  0.3423 -0.1487 -0.4298
   95POPC  H15S12677   6.897   4.850   4.557  2.1171 -0.6381  0.7029
   95POPC  C21612678   6.979   4.867   4.359 -0.3052  0.7554 -0.2890
   95POPC  H16R12679   6.906   4.795   4.317  1.0509 -1.0788  0.4324
   95POPC  H16S12680   7.071   4.812   4.388  0.5996  1.9178 -0.9006
   95POPC  C21712681   7.028   4.954   4.242 -0.0679  0.1569 -0.6347
   95POPC  H17R12682   7.116   5.010   4.281  1.4135 -3.0962  0.9853
   95POPC  H17S12683   6.951   5.031   4.223  0.0713  0.8673  1.4940
   95POPC  C21812684   7.061   4.884   4.110 -0.7880 -0.1414 -0.6603
   95POPC  H18R12685   6.973   4.819   4.091 -2.2764  1.6936 -0.2727
   95POPC  H18S12686   7.152   4.822   4.115 -0.3986  0.4403 -0.4410
   95POPC  H18T12687   7.072   4.953   4.023  0.1363  1.3742  0.6226
   95POPC   C3312688   7.282   6.053   5.458  0.4674 -0.5685 -0.3058
   95POPC   H3X12689   7.207   6.103   5.523  0.1912 -0.1073 -0.9624
   95POPC   H3Y12690   7.271   5.944   5.474 -1.0093 -0.8912 -3.1510
   95POPC   C3412691   7.257   6.066   5.307 -0.6906  0.1969 -0.0538
   95POPC   H4X12692   7.332   6.023   5.238 -0.2035  0.3689  0.3596
   95POPC   H4Y12693   7.259   6.175   5.286 -0.9439  0.3705  0.8075
   95POPC   C3512694   7.117   6.025   5.263 -0.6847  0.5516 -0.4048
   95POPC   H5X12695   7.042   6.090   5.312 -0.7241  0.8763 -0.8908
   95POPC   H5Y12696   7.085   5.921   5.287 -1.4191  0.6160 -1.0758
   95POPC   C3612697   7.098   6.048   5.113  0.4172  1.1899 -0.4493
   95POPC   H6X12698   7.156   6.141   5.094  3.0155 -0.4907 -1.0078
   95POPC   H6Y12699   6.995   6.051   5.070  1.9741  0.5077 -4.4536
   95POPC   C3712700   7.169   5.938   5.033  0.0823  0.7115 -0.0962
   95POPC   H7X12701   7.178   5.853   5.103  0.3609  0.7900 -0.0343
   95POPC   H7Y12702   7.270   5.972   5.001 -0.6277  1.1823 -1.9093
   95POPC   C3812703   7.097   5.917   4.899 -0.0942  0.6058  0.0163
   95POPC   H8X12704   7.068   6.014   4.854 -0.4838 -0.7138 -2.6626
   95POPC   H8Y12705   7.006   5.855   4.912 -0.8114  1.3551 -1.3301
   95POPC   C3912706   7.178   5.842   4.793 -0.0145  0.2691  0.3107
   95POPC   H9X12707   7.167   5.733   4.814 -3.2111 -0.2255 -3.3377
   95POPC   H9Y12708   7.285   5.873   4.796 -0.5502  2.4144 -1.3278
   95POPC  C31012709   7.140   5.866   4.647  0.4217  0.3307  0.2053
   95POPC  H10X12710   7.217   5.818   4.583  0.4757  0.4336  0.1936
   95POPC  H10Y12711   7.131   5.974   4.622 -0.8322  0.1020 -0.4206
   95POPC  C31112712   7.000   5.813   4.612  0.6363 -0.2333  0.1972
   95POPC  H11X12713   6.976   5.830   4.505  0.3633 -0.6607  0.1879
   95POPC  H11Y12714   6.926   5.876   4.666 -1.0262 -0.8678 -1.3012
   95POPC  C31212715   6.965   5.666   4.638 -0.2040 -0.0329  0.2032
   95POPC  H12X12716   6.965   5.660   4.748  0.1141  0.0141  0.2066
   95POPC  H12Y12717   7.042   5.604   4.588 -1.9533 -1.3397 -0.9408
   95POPC  C31312718   6.827   5.622   4.589 -0.0900 -0.3455  0.1620
   95POPC  H13X12719   6.810   5.660   4.486  1.6085 -0.8880 -0.3344
   95POPC  H13Y12720   6.758   5.677   4.657 -1.3691 -1.3143 -0.3212
   95POPC  C31412721   6.803   5.471   4.582  0.2901 -0.3619 -0.9370
   95POPC  H14X12722   6.788   5.440   4.688 -1.2771  2.5827 -0.2434
   95POPC  H14Y12723   6.899   5.431   4.543 -0.0649 -0.7732 -1.3843
   95POPC  C31512724   6.681   5.428   4.500  0.1219 -0.4364 -0.6501
   95POPC  H15X12725   6.673   5.317   4.507 -0.0964 -0.3217  1.0120
   95POPC  H15Y12726   6.700   5.442   4.391  0.8045 -0.2148 -0.5098
   95POPC  C31612727   6.544   5.472   4.549 -0.0779 -0.2303 -1.3963
   95POPC  H16X12728   6.530   5.473   4.659  1.8177 -1.3462 -1.1405
   95POPC  H16Y12729   6.461   5.408   4.513 -0.0947 -1.2432  0.3961
   95POPC  H16Z12730   6.519   5.576   4.518  2.0681  0.9987  0.8243
   96POPC     N12731   5.623   3.659   6.729  0.4985  0.1298  0.4130
   96POPC   C1212732   5.556   3.628   6.597  0.2631 -0.6676  0.7157
   96POPC  H12A12736   5.634   3.632   6.522  0.5389  0.2903  1.0504
   96POPC  H12B12737   5.491   3.710   6.570  0.0174 -1.1310 -0.1180
   96POPC   C1312733   5.514   3.658   6.833  0.0408  0.0754 -0.0657
   96POPC  H13A12738   5.435   3.719   6.793  0.9307  1.4968  0.3226
   96POPC  H13B12739   5.480   3.555   6.836  0.9878 -0.2338  0.2720
   96POPC  H13C12740   5.539   3.683   6.935 -1.6180  2.0603 -0.1008
   96POPC   C1412734   5.733   3.565   6.772  0.2590 -0.4084 -0.1359
   96POPC  H14A12741   5.783   3.617   6.853 -2.3818  0.3697  1.0424
   96POPC  H14B12742   5.704   3.465   6.797  0.1581 -0.9161 -2.2045
   96POPC  H14C12743   5.799   3.545   6.688  0.8793 -0.4153  0.3460
   96POPC   C1512735   5.677   3.799   6.723  0.2452  0.2107 -0.0485
   96POPC  H15A12744   5.768   3.805   6.666 -1.9411 -1.1732 -3.7935
   96POPC  H15B12745   5.698   3.831   6.825 -0.2632 -0.9605  0.4256
   96POPC  H15C12746   5.601   3.861   6.678  1.1292  1.7833  0.5556
   96POPC   C1112747   5.469   3.503   6.581 -0.5397 -0.0900  0.5659
   96POPC  H11A12748   5.446   3.504   6.473  0.9986  0.6814  0.2318
   96POPC  H11B12749   5.374   3.512   6.638  0.3782 -2.7555  2.6450
   96POPC     P12750   5.514   3.257   6.536 -0.3017 -0.2258 -0.1582
   96POPC   O1312751   5.368   3.250   6.512 -0.4132  0.2800  0.3604
   96POPC   O1412752   5.575   3.141   6.605 -0.3881 -0.4559 -0.4704
   96POPC   O1212753   5.539   3.387   6.627 -0.2575 -0.2154 -0.1848
   96POPC   O1112754   5.586   3.280   6.395  0.0703 -0.0533  0.0576
   96POPC    C112755   5.724   3.244   6.390  0.0103 -0.2377 -0.2919
   96POPC    HA12756   5.751   3.178   6.305  1.2637  1.4113 -1.2118
   96POPC    HB12757   5.761   3.185   6.476 -0.2683 -0.3424 -0.2452
   96POPC    C212758   5.817   3.367   6.387 -0.1249 -0.1214  0.4309
   96POPC    HS12759   5.816   3.414   6.488  1.5407 -0.7964  0.7769
   96POPC   O2112760   5.760   3.447   6.283  0.0056 -0.3243  0.2041
   96POPC   C2112761   5.762   3.579   6.306  0.3760 -0.1981 -0.5278
   96POPC   O2212762   5.792   3.634   6.410 -0.2077 -0.2086 -0.3485
   96POPC   C2212763   5.702   3.648   6.185  0.0412  0.0879 -0.2016
   96POPC   H2R12764   5.604   3.696   6.207 -1.0767 -1.1513 -2.2663
   96POPC   H2S12765   5.673   3.570   6.111 -1.3976 -2.2850  2.7433
   96POPC    C312766   5.960   3.327   6.351 -0.1134  0.1716  0.1491
   96POPC    HX12767   5.992   3.251   6.426 -0.1757  1.2187  1.2577
   96POPC    HY12768   6.021   3.420   6.359  1.2716 -0.6580 -0.4923
   96POPC   O3112769   5.964   3.274   6.218  0.4378  0.3066  0.1068
   96POPC   C3112770   5.987   3.349   6.110 -0.0655  0.5563  0.1690
   96POPC   O3212771   5.994   3.471   6.117 -0.5943  0.5827  0.2785
   96POPC   C3212772   5.984   3.271   5.980  0.4623  0.6193  0.1170
   96POPC   H2X12773   5.948   3.166   5.980  0.8089  0.4565  2.8412
   96POPC   H2Y12774   6.090   3.268   5.946  0.4838  0.3844  0.2048
   96POPC   C2312775   5.780   3.767   6.128  0.1274  0.3009  0.3633
   96POPC   H3R12776   5.856   3.803   6.200 -0.1879  0.3279  0.6859
   96POPC   H3S12777   5.709   3.852   6.128 -0.3666 -0.0927  1.4802
   96POPC   C2412778   5.842   3.749   5.990 -0.3409 -0.1653  0.2140
   96POPC   H4R12779   5.904   3.658   6.004 -0.6793 -0.4176  0.0894
   96POPC   H4S12780   5.919   3.821   5.956 -1.1675 -0.0953 -1.6262
   96POPC   C2512781   5.743   3.716   5.877  0.3865 -0.3510 -0.3730
   96POPC   H5R12782   5.662   3.791   5.885  0.5096 -0.4153  1.6581
   96POPC   H5S12783   5.704   3.613   5.890  0.1183 -0.2487 -0.3722
   96POPC   C2612784   5.797   3.733   5.735 -0.4258 -0.2758 -0.6769
   96POPC   H6R12785   5.886   3.675   5.703 -0.6136 -0.6983 -0.4257
   96POPC   H6S12786   5.829   3.839   5.727  2.1056 -0.9539 -0.0147
   96POPC   C2712787   5.686   3.725   5.631 -1.0390  0.3354 -0.0728
   96POPC   H7R12788   5.667   3.616   5.620 -0.4759  0.3557 -1.2838
   96POPC   H7S12789   5.605   3.787   5.675 -1.1054  0.4409 -0.3446
   96POPC   C2812790   5.726   3.766   5.489 -0.0546 -0.2226  0.0379
   96POPC   H8R12791   5.744   3.875   5.505 -1.3681 -0.0916  0.7566
   96POPC   H8S12792   5.640   3.746   5.422 -0.3148 -2.5365  1.0211
   96POPC   C2912793   5.852   3.702   5.439 -0.0529 -0.3092  0.1537
   96POPC   H9112794   5.944   3.733   5.491  1.7543 -4.9329 -0.1285
   96POPC  C21012795   5.863   3.610   5.343  0.4986 -0.3092  0.2153
   96POPC  H10112796   5.960   3.563   5.323  0.4147 -0.1882 -0.4978
   96POPC  C21112797   5.757   3.561   5.248  0.3587  0.3935  0.0047
   96POPC  H11R12798   5.698   3.642   5.200  1.3961  1.9401  1.2668
   96POPC  H11S12799   5.685   3.501   5.308  1.2981 -1.0581 -0.2707
   96POPC  C21212800   5.814   3.461   5.147 -0.3965 -0.2164  0.1802
   96POPC  H12R12801   5.888   3.395   5.197  0.6490  1.5132  0.9542
   96POPC  H12S12802   5.875   3.516   5.072  1.9695  0.5239  2.5793
   96POPC  C21312803   5.709   3.377   5.075 -0.2221 -0.4783  0.2315
   96POPC  H13R12804   5.649   3.456   5.025  1.1703  0.5181  0.1346
   96POPC  H13S12805   5.645   3.323   5.148  1.5336 -2.8168  0.1220
   96POPC  C21412806   5.761   3.271   4.977 -0.3920 -0.1758 -0.1881
   96POPC  H14R12807   5.679   3.198   4.965  0.9068 -1.6475 -0.3430
   96POPC  H14S12808   5.839   3.217   5.035  0.6605  0.1007 -1.3243
   96POPC  C21512809   5.805   3.326   4.841  0.4549  0.0703  0.1777
   96POPC  H15R12810   5.894   3.392   4.853 -0.1513  0.8167  0.6144
   96POPC  H15S12811   5.724   3.383   4.791 -0.2974 -1.2934 -0.1888
   96POPC  C21612812   5.838   3.212   4.745 -0.0020 -0.2487  0.3978
   96POPC  H16R12813   5.845   3.260   4.645 -0.6782 -0.7957  0.0809
   96POPC  H16S12814   5.752   3.142   4.744 -1.0689  1.0590  0.2519
   96POPC  C21712815   5.972   3.143   4.775  0.0326 -0.3385  0.0430
   96POPC  H17R12816   5.948   3.090   4.869 -1.7442  0.4945  0.0829
   96POPC  H17S12817   6.050   3.217   4.803  2.7728 -3.4351  0.7575
   96POPC  C21812818   6.015   3.052   4.660  1.0942  0.1916  0.0168
   96POPC  H18R12819   6.077   3.104   4.583 -0.6330  0.7509 -1.0499
   96POPC  H18S12820   5.924   2.998   4.627  0.6838  0.5004  0.6317
   96POPC  H18T12821   6.087   2.978   4.699  0.7833  0.3624  0.9125
   96POPC   C3312822   5.904   3.347   5.874  0.1063  0.2434  0.1140
   96POPC   H3X12823   5.961   3.440   5.850  1.2811 -0.8394 -1.3391
   96POPC   H3Y12824   5.809   3.388   5.915  1.1193  0.9381  1.8585
   96POPC   C3412825   5.908   3.274   5.740 -0.4212 -0.1257  0.3002
   96POPC   H4X12826   5.876   3.170   5.765  1.9735 -1.1212 -0.6079
   96POPC   H4Y12827   6.014   3.259   5.711 -0.3418 -0.5077  0.7760
   96POPC   C3512828   5.846   3.346   5.620 -0.3813 -0.3187  0.1628
   96POPC   H5X12829   5.889   3.448   5.610 -0.6925 -0.3092 -1.1590
   96POPC   H5Y12830   5.737   3.360   5.638 -0.6115 -0.6174 -1.0232
   96POPC   C3612831   5.878   3.264   5.495 -0.5483  0.3569 -0.3262
   96POPC   H6X12832   5.988   3.254   5.503 -0.4437  0.6208 -1.3463
   96POPC   H6Y12833   5.849   3.312   5.400  0.0371 -0.9746 -1.1887
   96POPC   C3712834   5.814   3.125   5.499  0.4111 -0.0831 -0.2191
   96POPC   H7X12835   5.705   3.142   5.512  0.6660  0.8364  0.6996
   96POPC   H7Y12836   5.862   3.049   5.564 -2.0567 -1.3557  0.2004
   96POPC   C3812837   5.825   3.062   5.359  0.0761 -0.0884 -0.2449
   96POPC   H8X12838   5.930   3.075   5.326  0.4898 -1.5709  0.4579
   96POPC   H8Y12839   5.765   3.124   5.289  0.9341  1.2427  0.1741
   96POPC   C3912840   5.779   2.917   5.352 -0.1237 -0.0366 -0.0407
   96POPC   H9X12841   5.668   2.925   5.355 -0.1407 -0.4307  0.3641
   96POPC   H9Y12842   5.790   2.857   5.445  0.8282  0.9317  0.4707
   96POPC  C31012843   5.821   2.833   5.231  0.7458  0.3575 -0.0170
   96POPC  H10X12844   5.825   2.723   5.244 -0.9596  0.1870 -0.7132
   96POPC  H10Y12845   5.923   2.864   5.201  0.0946  2.2408 -0.3043
   96POPC  C31112846   5.726   2.861   5.114  0.3055 -0.0399  0.2411
   96POPC  H11X12847   5.703   2.970   5.109  3.1653  0.5142 -2.2736
   96POPC  H11Y12848   5.631   2.812   5.143  0.6316  0.2568  1.8667
   96POPC  C31212849   5.765   2.807   4.976 -0.5787 -0.2868  0.0865
   96POPC  H12X12850   5.787   2.699   4.971  0.3336 -0.1882  1.6023
   96POPC  H12Y12851   5.865   2.852   4.958 -1.0933  0.5692 -0.6974
   96POPC  C31312852   5.662   2.834   4.866  0.1640 -0.0062 -0.5472
   96POPC  H13X12853   5.629   2.940   4.869  0.6007  0.0886  1.3486
   96POPC  H13Y12854   5.579   2.762   4.882  0.2370 -0.8277 -3.5637
   96POPC  C31412855   5.710   2.810   4.723  0.0057 -0.0843 -0.5868
   96POPC  H14X12856   5.720   2.700   4.707 -2.2230 -0.5010  0.6755
   96POPC  H14Y12857   5.806   2.860   4.699  0.2726 -0.9120 -1.2809
   96POPC  C31512858   5.621   2.885   4.624  0.0826  0.0037 -0.5878
   96POPC  H15X12859   5.654   2.868   4.519 -0.3162 -0.8645 -0.5753
   96POPC  H15Y12860   5.626   2.993   4.651  0.7226 -0.5789  1.7557
   96POPC  C31612861   5.475   2.838   4.622 -0.0711  0.4399  0.0900
   96POPC  H16X12862   5.424   2.916   4.562 -0.5178 -0.3481 -0.5717
   96POPC  H16Y12863   5.431   2.834   4.724 -0.3616  1.2307  0.0005
   96POPC  H16Z12864   5.472   2.740   4.570 -2.0696 -0.0004  0.9856
   97POPC     N12865   7.926   7.461   6.135  0.1896 -0.0515 -0.1205
   97POPC   C1212866   7.878   7.585   6.063  0.0174  0.1892  0.4051
   97POPC  H12A12870   7.862   7.556   5.960 -0.5211 -2.9942  1.3171
   97POPC  H12B12871   7.959   7.656   6.063  2.2269 -2.2545  0.9737
   97POPC   C1312867   0.107   7.434   6.094  0.2753 -0.0517  0.0273
   97POPC  H13A12872   0.171   7.507   6.141 -0.2042  0.7465 -0.5268
   97POPC  H13B12873   0.126   7.333   6.125 -0.6159 -0.4120 -0.5686
   97POPC  H13C12874   0.113   7.461   5.989  1.9060 -0.8161 -0.0811
   97POPC   C1412868   7.926   7.470   6.286  0.1088 -0.3734 -0.1017
   97POPC  H14A12875   7.822   7.482   6.311 -0.1343  0.7088 -1.6030
   97POPC  H14B12876   7.959   7.371   6.313 -1.5643 -0.8908  0.0854
   97POPC  H14C12877   0.041   7.538   6.320 -0.6891  1.6104 -2.0116
   97POPC   C1512869   7.845   7.344   6.086  0.2225  0.0333 -0.3752
   97POPC  H15A12878   7.868   7.348   5.980 -2.5151 -1.4965 -1.0610
   97POPC  H15B12879   7.741   7.366   6.099  0.2309  0.0361 -0.3134
   97POPC  H15C12880   7.880   7.254   6.135  0.9577  0.4418 -0.1254
   97POPC   C1112881   7.754   7.655   6.121 -0.0243  0.3882  0.0766
   97POPC  H11A12882   7.736   7.744   6.058  0.8911  0.5174 -0.0203
   97POPC  H11B12883   7.749   7.679   6.229 -1.6499  0.8929 -0.1030
   97POPC     P12884   7.495   7.608   6.152  0.0137 -0.1588 -0.1959
   97POPC   O1312885   7.497   7.749   6.196 -0.2303 -0.1746 -0.1345
   97POPC   O1412886   7.467   7.507   6.257  0.0112  0.1788  0.1303
   97POPC   O1212887   7.640   7.573   6.094  0.2671 -0.1312  0.4167
   97POPC   O1112888   7.404   7.588   6.022  0.1072  0.3573 -0.3387
   97POPC    C112889   7.395   7.458   5.963  0.2703  0.0347  0.3405
   97POPC    HA12890   7.304   7.450   5.899  2.1969 -0.3177 -2.4298
   97POPC    HB12891   7.370   7.378   6.036  2.3294 -0.7825  0.1656
   97POPC    C212892   7.509   7.426   5.865 -0.2190 -0.6061 -0.0293
   97POPC    HS12893   7.583   7.380   5.934 -0.3293 -1.3987 -0.4426
   97POPC   O2112894   7.561   7.544   5.803 -0.0228 -0.5244  0.2900
   97POPC   C2112895   7.689   7.525   5.771 -0.0502  0.2470 -0.2905
   97POPC   O2212896   7.753   7.422   5.785 -0.2263  0.2161  0.3167
   97POPC   C2212897   7.738   7.655   5.709  0.0951  0.3522  0.0428
   97POPC   H2R12898   7.834   7.686   5.756 -0.0441 -0.2583  0.7337
   97POPC   H2S12899   7.666   7.737   5.728 -0.5697 -0.3163  0.4205
   97POPC    C312900   7.454   7.329   5.760 -0.1981 -0.4514 -0.1823
   97POPC    HX12901   7.367   7.370   5.705 -1.7117 -1.0254  1.7293
   97POPC    HY12902   7.408   7.237   5.802 -0.4889 -0.2239  0.0019
   97POPC   O3112903   7.549   7.304   5.656 -0.3135 -0.1004 -0.3761
   97POPC   C3112904   7.604   7.182   5.657 -0.0118  0.0354 -0.2833
   97POPC   O3212905   7.572   7.088   5.728  0.3378 -0.0506 -0.2380
   97POPC   C3212906   7.715   7.173   5.553  0.5133  0.2336  0.2543
   97POPC   H2X12907   7.792   7.100   5.587  0.4993  0.7154  1.3324
   97POPC   H2Y12908   7.773   7.267   5.540 -1.0421  1.1907  0.1252
   97POPC   C2312909   7.773   7.634   5.562 -0.2107  0.0160  0.0201
   97POPC   H3R12910   7.826   7.536   5.554  1.8165  1.1687 -1.0916
   97POPC   H3S12911   7.853   7.702   5.527  0.7699  1.2743  4.3988
   97POPC   C2412912   7.652   7.655   5.470  0.1641 -0.2448 -0.5383
   97POPC   H4R12913   7.591   7.731   5.524  1.4590 -0.0521  0.7033
   97POPC   H4S12914   7.588   7.565   5.471 -1.7027  1.0638  1.1162
   97POPC   C2512915   7.696   7.697   5.330 -0.4348  0.1437 -0.6127
   97POPC   H5R12916   7.769   7.779   5.350 -0.7745  0.9495 -2.5487
   97POPC   H5S12917   7.608   7.742   5.281  0.1726  1.8092 -0.2210
   97POPC   C2612918   7.752   7.586   5.241 -0.1683 -0.0293 -0.2295
   97POPC   H6R12919   7.666   7.518   5.222 -0.1540 -0.4838  1.2334
   97POPC   H6S12920   7.828   7.529   5.299 -1.8255 -0.7773  1.2607
   97POPC   C2712921   7.804   7.634   5.106  0.0202 -0.3530 -0.2725
   97POPC   H7R12922   7.719   7.654   5.037  0.5474  3.0750  0.0160
   97POPC   H7S12923   7.853   7.547   5.058 -1.4797 -1.2415 -0.2286
   97POPC   C2812924   7.896   7.756   5.111 -0.3062 -0.0981 -0.4880
   97POPC   H8R12925   7.849   7.837   5.172 -2.2174 -1.6535  0.1747
   97POPC   H8S12926   7.925   7.788   5.008  0.5158 -1.1255 -0.5809
   97POPC   C2912927   0.056   7.715   5.188 -0.1390 -0.0080 -0.6403
   97POPC   H9112928   0.047   7.725   5.297  1.9751  1.0743 -0.5415
   97POPC  C21012929   0.180   7.694   5.142  0.1440  0.6388 -0.1755
   97POPC  H10112930   0.256   7.655   5.211 -0.4704  0.5196  0.4355
   97POPC  C21112931   0.213   7.681   4.996  0.0731 -0.1225 -0.1271
   97POPC  H11R12932   0.188   7.766   4.928 -1.5013 -2.0146 -1.9898
   97POPC  H11S12933   0.157   7.597   4.948 -0.9089 -0.0670  0.9092
   97POPC  C21212934   0.359   7.651   4.964  0.1071 -0.1583  0.0587
   97POPC  H12R12935   0.394   7.578   5.039  0.4280  0.5907  0.6447
   97POPC  H12S12936   0.427   7.737   4.982 -1.7696  0.7174  3.2419
   97POPC  C21312937   0.381   7.577   4.832  0.0647  0.1913 -0.1462
   97POPC  H13R12938   0.292   7.516   4.803 -1.3118  3.0522 -2.1635
   97POPC  H13S12939   0.473   7.516   4.843  0.0467  0.4522  1.6480
   97POPC  C21412940   0.416   7.663   4.710 -0.0265  0.1906 -0.1740
   97POPC  H14R12941   0.502   7.728   4.737  0.0722  0.1492 -0.3921
   97POPC  H14S12942   0.327   7.726   4.688  0.2338  0.4885 -0.3821
   97POPC  C21512943   0.446   7.576   4.588  0.1994  0.0569 -0.0232
   97POPC  H15R12944   0.369   7.495   4.589 -1.9006  2.0022 -0.6411
   97POPC  H15S12945   0.545   7.527   4.603  0.5034  1.2745  2.1764
   97POPC  C21612946   0.446   7.647   4.453  0.4815  0.0840 -0.0090
   97POPC  H16R12947   0.528   7.722   4.449  2.1920 -1.5570  2.5271
   97POPC  H16S12948   0.357   7.713   4.444  1.6788  1.4312 -2.3823
   97POPC  C21712949   0.456   7.557   4.330  0.1972  0.0926 -0.0367
   97POPC  H17R12950   0.407   7.457   4.335  0.8499 -0.2719 -0.8597
   97POPC  H17S12951   0.554   7.514   4.302 -0.2526 -1.3245  0.4805
   97POPC  C21812952   0.414   7.629   4.202 -0.5546 -0.3380 -0.0409
   97POPC  H18R12953   0.469   7.726   4.198 -0.2819 -0.4711  0.3666
   97POPC  H18S12954   0.306   7.652   4.204 -0.7570 -1.3458  1.3312
   97POPC  H18T12955   0.445   7.565   4.117  3.0069 -0.5317  1.3154
   97POPC   C3312956   7.656   7.131   5.418  0.4957 -0.1561  0.3825
   97POPC   H3X12957   7.589   7.216   5.392  1.4081  0.5232  0.2651
   97POPC   H3Y12958   7.599   7.038   5.439  1.2208 -0.3922  1.3488
   97POPC   C3412959   7.756   7.109   5.305  0.3737  0.0219  0.2382
   97POPC   H4X12960   7.710   7.093   5.205  1.5812  0.6360 -0.4209
   97POPC   H4Y12961   7.819   7.021   5.333  1.2504  0.3497 -0.6775
   97POPC   C3512962   7.844   7.232   5.283 -0.3978  0.5138 -0.1035
   97POPC   H5X12963   7.920   7.234   5.364 -1.1143  1.6060  0.5546
   97POPC   H5Y12964   7.781   7.323   5.293  1.4980  1.7854  0.6218
   97POPC   C3612965   7.901   7.235   5.141  0.1843  0.0473  0.1166
   97POPC   H6X12966   7.836   7.262   5.055  1.0533 -3.1268 -1.6217
   97POPC   H6Y12967   7.920   7.127   5.123  2.0598  0.3502  0.1690
   97POPC   C3712968   0.076   7.301   5.131  0.1133  0.2299 -0.2446
   97POPC   H7X12969   0.147   7.237   5.188 -1.4078 -1.2223  0.0715
   97POPC   H7Y12970   0.077   7.399   5.183 -1.8826 -1.9155  4.0457
   97POPC   C3812971   0.118   7.325   4.986  0.1600 -0.0945 -0.2852
   97POPC   H8X12972   0.220   7.368   4.989  0.9601 -1.8748 -1.0170
   97POPC   H8Y12973   0.048   7.399   4.942  1.6618  2.2441  1.1138
   97POPC   C3912974   0.126   7.200   4.897 -0.3181 -0.2841 -0.0631
   97POPC   H9X12975   0.166   7.231   4.798  0.2312 -0.0954  0.2128
   97POPC   H9Y12976   0.026   7.154   4.886 -1.2186  0.9503  2.4592
   97POPC  C31012977   0.227   7.097   4.950 -0.0634 -0.2180 -0.4159
   97POPC  H10X12978   0.195   7.067   5.052  0.5602  0.9006  0.1295
   97POPC  H10Y12979   0.326   7.146   4.955 -0.4591  0.6018 -0.3461
   97POPC  C31112980   0.230   6.976   4.857 -0.5176 -0.5138 -0.0505
   97POPC  H11X12981   0.254   7.013   4.755  0.1275  0.4236  0.4261
   97POPC  H11Y12982   0.132   6.924   4.848 -2.1101  2.0819  1.6723
   97POPC  C31212983   0.326   6.865   4.898 -0.4521 -0.4951 -0.1522
   97POPC  H12X12984   0.308   6.858   5.008  0.8412  0.8809  0.1630
   97POPC  H12Y12985   0.429   6.905   4.884 -0.7353  0.2996  0.0135
   97POPC  C31312986   0.291   6.725   4.845  0.8750 -0.7336 -0.4182
   97POPC  H13X12987   0.180   6.724   4.846  0.8452  0.4625  1.5816
   97POPC  H13Y12988   0.330   6.659   4.925  2.1341  1.5614  0.9377
   97POPC  C31412989   0.348   6.694   4.707  0.7022 -0.3624 -0.5768
   97POPC  H14X12990   0.430   6.764   4.679  0.1892  0.6003  0.3211
   97POPC  H14Y12991   0.271   6.704   4.628  1.0686 -0.5771 -0.9629
   97POPC  C31512992   0.409   6.553   4.701 -0.1410 -0.7674  0.2585
   97POPC  H15X12993   0.458   6.518   4.794  0.2492  2.4126  1.3082
   97POPC  H15Y12994   0.495   6.568   4.633  0.1639  2.1215  1.2074
   97POPC  C31612995   0.316   6.451   4.635 -0.6432 -0.2617  0.1750
   97POPC  H16X12996   0.353   6.352   4.671  1.2717  0.7824  1.1569
   97POPC  H16Y12997   0.314   6.464   4.525 -0.0554  2.5013  0.4558
   97POPC  H16Z12998   0.213   6.467   4.673 -0.3216 -0.1843  1.0235
   98POPC     N12999   6.322   0.582   6.360  0.0235  0.1082  0.5546
   98POPC   C1213000   6.336   0.604   6.211  0.1679 -0.0949  0.5372
   98POPC  H12A13004   6.331   0.711   6.199  0.1163 -0.3389 -1.9496
   98POPC  H12B13005   6.254   0.559   6.158  0.6280 -1.7781  1.2190
   98POPC   C1313001   6.200   0.653   6.412 -0.4657 -0.5916  0.3628
   98POPC  H13A13006   6.206   0.755   6.378 -1.4684 -0.6356  0.0265
   98POPC  H13B13007   6.110   0.611   6.370 -0.1518  2.3753 -3.4916
   98POPC  H13C13008   6.206   0.644   6.520  1.5357 -2.5199  0.1361
   98POPC   C1413002   6.301   0.438   6.401  0.0991  0.0690  0.4565
   98POPC  H14A13009   6.222   0.394   6.341 -1.5868  1.9034  1.2563
   98POPC  H14B13010   6.401   0.401   6.388 -0.1734  0.4730 -3.6226
   98POPC  H14C13011   6.275   0.440   6.505  2.7618  2.0284  1.1285
   98POPC   C1513003   6.438   0.643   6.434  0.3145  0.1199  0.0912
   98POPC  H15A13012   6.443   0.750   6.421 -0.5741  0.1439 -0.0380
   98POPC  H15B13013   6.523   0.605   6.379  0.9314  2.0985 -0.3740
   98POPC  H15C13014   6.434   0.628   6.541  1.9339  0.4369  0.2200
   98POPC   C1113015   6.464   0.550   6.146  0.0255  0.3704 -0.1327
   98POPC  H11A13016   6.551   0.616   6.166 -0.8936  1.5578 -0.0047
   98POPC  H11B13017   6.439   0.558   6.038 -0.1287 -2.0217 -0.2934
   98POPC     P13018   6.539   0.310   6.086  0.2186 -0.1377  0.2565
   98POPC   O1313019   6.580   0.187   6.157  0.2412 -0.1860  0.1594
   98POPC   O1413020   6.642   0.367   5.997 -0.3848  0.0869 -0.3092
   98POPC   O1213021   6.504   0.422   6.195 -0.0882  0.2819 -0.2690
   98POPC   O1113022   6.405   0.291   6.001  0.0365  0.3735  0.4256
   98POPC    C113023   6.290   0.227   6.057 -0.0907  0.1288 -0.1040
   98POPC    HA13024   6.246   0.278   6.146 -2.2497 -1.3731 -0.2677
   98POPC    HB13025   6.318   0.132   6.108  0.1575  0.9123  1.2511
   98POPC    C213026   6.180   0.199   5.954 -0.1722 -0.2400  0.0815
   98POPC    HS13027   6.097   0.169   6.022  1.8918 -0.3628  2.5906
   98POPC   O2113028   6.222   0.095   5.865 -0.3545 -0.0613 -0.2150
   98POPC   C2113029   6.113   0.032   5.821 -0.2056 -0.7086  0.3264
   98POPC   O2213030   5.998   0.060   5.852 -0.0641 -0.1230  0.3249
   98POPC   C2213031   6.148   7.918   5.694  0.1154 -0.1392  0.0437
   98POPC   H2R13032   6.087   7.825   5.706 -1.1218  0.8080  1.2418
   98POPC   H2S13033   6.256   7.894   5.685  0.7880  2.4439  0.9875
   98POPC    C313034   6.137   0.326   5.878  0.0716 -0.5747 -0.6177
   98POPC    HX13035   6.223   0.362   5.818 -0.3801  0.7158 -0.5059
   98POPC    HY13036   6.121   0.418   5.938  2.3347 -0.4518 -0.1766
   98POPC   O3113037   6.022   0.319   5.792 -0.5905 -0.7770  0.2801
   98POPC   C3113038   5.907   0.352   5.851 -0.2567  1.1470 -0.1178
   98POPC   O3213039   5.888   0.380   5.968 -0.5378  0.2739  0.0518
   98POPC   C3213040   5.794   0.320   5.753  0.3901 -0.0387 -0.4984
   98POPC   H2X13041   5.736   0.232   5.787 -0.0963 -0.8306 -3.2685
   98POPC   H2Y13042   5.822   0.295   5.649 -2.8004  0.8041 -1.6340
   98POPC   C2313043   6.093   0.021   5.567 -0.2160 -0.1139  0.1785
   98POPC   H3R13044   5.999   0.077   5.587 -0.1610 -0.0031  0.1346
   98POPC   H3S13045   6.070   7.903   5.495 -0.9329  2.2856 -2.4008
   98POPC   C2413046   6.180   0.132   5.508 -0.2621 -0.2148 -0.0749
   98POPC   H4R13047   6.154   0.222   5.568  1.3029 -0.7254  1.3925
   98POPC   H4S13048   6.140   0.151   5.406  0.9667  1.8704 -0.2101
   98POPC   C2513049   6.330   0.104   5.499 -0.2679 -0.3852  0.3648
   98POPC   H5R13050   6.350   0.016   5.435  0.7058  0.0539  0.0524
   98POPC   H5S13051   6.363   0.085   5.603 -0.7297  2.6049  1.1103
   98POPC   C2613052   6.415   0.223   5.454 -0.5587 -0.3321 -0.0400
   98POPC   H6R13053   6.521   0.199   5.475 -0.8100 -3.2166 -1.7411
   98POPC   H6S13054   6.397   0.317   5.511  0.0802  0.6573 -1.4153
   98POPC   C2713055   6.398   0.266   5.308 -0.0719  0.0639  0.0215
   98POPC   H7R13056   6.301   0.312   5.278  0.1213 -0.3408 -1.2632
   98POPC   H7S13057   6.413   0.174   5.248  2.6023 -1.1027  2.3658
   98POPC   C2813058   6.508   0.369   5.278 -0.3173  0.1816 -0.4804
   98POPC   H8R13059   6.602   0.326   5.320  1.1034  0.3744 -3.3273
   98POPC   H8S13060   6.479   0.465   5.325 -1.6606  1.0336 -2.9392
   98POPC   C2913061   6.530   0.406   5.134 -0.0957  0.3571 -0.4010
   98POPC   H9113062   6.463   0.346   5.071 -0.0011  0.2090 -0.3620
   98POPC  C21013063   6.593   0.512   5.081  0.6202 -0.1002 -0.4798
   98POPC  H10113064   6.606   0.503   4.972  0.4195  0.8205 -0.5849
   98POPC  C21113065   6.690   0.607   5.146 -0.3971  0.3545  0.4008
   98POPC  H11R13066   6.797   0.586   5.123 -0.4290  1.9648 -1.2672
   98POPC  H11S13067   6.676   0.593   5.255  0.7913 -0.0919  0.5076
   98POPC  C21213068   6.656   0.753   5.119  0.0609  0.2882 -0.5800
   98POPC  H12R13069   6.566   0.778   5.181  1.3794 -1.0316  1.9341
   98POPC  H12S13070   6.636   0.752   5.010 -1.1484  0.5820 -0.3715
   98POPC  C21313071   6.762   0.861   5.142  0.5405 -0.3251  0.1212
   98POPC  H13R13072   6.802   0.854   5.245 -0.3119  2.0763  0.6456
   98POPC  H13S13073   6.707   0.958   5.145  1.4504  0.1626  1.4419
   98POPC  C21413074   6.881   0.876   5.047  0.4705 -0.1850  0.0549
   98POPC  H14R13075   6.929   0.776   5.045 -0.1415 -0.6371  4.1371
   98POPC  H14S13076   6.958   0.948   5.082 -1.0254  1.3794  0.2089
   98POPC  C21513077   6.848   0.919   4.904  0.1795 -0.3019  0.0863
   98POPC  H15R13078   6.796   1.017   4.904 -0.5218 -0.6719  0.6142
   98POPC  H15S13079   6.782   0.843   4.857 -0.6724  1.3300 -1.4194
   98POPC  C21613080   6.967   0.930   4.808 -0.0777 -0.1760 -0.2192
   98POPC  H16R13081   7.028   1.019   4.832  2.0166 -1.8356  0.8044
   98POPC  H16S13082   6.926   0.949   4.706  2.3897 -0.6488 -1.3465
   98POPC  C21713083   7.045   0.799   4.794 -0.4799 -0.4422  0.0049
   98POPC  H17R13084   6.967   0.720   4.790 -1.9125  0.9640 -0.1157
   98POPC  H17S13085   7.113   0.790   4.882  0.7838  0.3684 -0.8699
   98POPC  C21813086   7.121   0.789   4.662 -0.3254 -0.5229  0.0995
   98POPC  H18R13087   7.203   0.864   4.662 -0.9383  0.1920 -2.3805
   98POPC  H18S13088   7.053   0.792   4.574  0.5654  3.4235 -0.5530
   98POPC  H18T13089   7.167   0.689   4.649  1.4707  0.1918  0.8118
   98POPC   C3313090   5.696   0.437   5.741 -0.0804 -0.3185  0.5126
   98POPC   H3X13091   5.757   0.530   5.735  0.1492 -0.4632  0.6127
   98POPC   H3Y13092   5.656   0.464   5.841  0.3984  2.1845  0.0571
   98POPC   C3413093   5.588   0.423   5.633  0.0397 -0.3255  0.3940
   98POPC   H4X13094   5.519   0.504   5.666  1.4732  0.4721  1.4944
   98POPC   H4Y13095   5.538   0.325   5.651  0.1699 -0.2636  1.0972
   98POPC   C3513096   5.630   0.433   5.486 -0.3480 -0.3522  0.2816
   98POPC   H5X13097   5.708   0.357   5.464  1.7228  1.7998  0.0425
   98POPC   H5Y13098   5.674   0.531   5.459 -0.9198  0.1454  1.1437
   98POPC   C3613099   5.509   0.422   5.393 -0.2833 -0.2301  0.1855
   98POPC   H6X13100   5.450   0.513   5.416 -0.4228 -0.0150 -0.9737
   98POPC   H6Y13101   5.447   0.332   5.416 -0.1773 -1.4303 -3.8217
   98POPC   C3713102   5.556   0.415   5.247  0.1080 -0.2816  0.3121
   98POPC   H7X13103   5.622   0.327   5.234  0.6685 -0.1848  2.3370
   98POPC   H7Y13104   5.612   0.507   5.219  1.0932 -0.8208  0.4821
   98POPC   C3813105   5.442   0.390   5.148  0.6944  0.2624 -0.5041
   98POPC   H8X13106   5.375   0.315   5.195 -0.0412  1.6666  0.7237
   98POPC   H8Y13107   5.487   0.352   5.054  1.3376  0.0778 -0.1260
   98POPC   C3913108   5.360   0.519   5.147 -0.1442 -0.2425  0.7800
   98POPC   H9X13109   5.427   0.606   5.126  1.8014 -1.5460  1.4076
   98POPC   H9Y13110   5.303   0.537   5.240 -0.4536 -1.0316  0.7446
   98POPC  C31013111   5.247   0.518   5.044  0.1635  0.8490  0.4200
   98POPC  H10X13112   5.177   0.601   5.070  0.2321  1.2880 -0.7844
   98POPC  H10Y13113   5.189   0.424   5.053  0.8120  0.5130  1.0958
   98POPC  C31113114   5.295   0.543   4.902 -0.2963 -0.0824  0.0951
   98POPC  H11X13115   5.346   0.455   4.858  2.1576  1.3654 -0.0977
   98POPC  H11Y13116   5.362   0.630   4.883  1.1459 -0.7969  1.8213
   98POPC  C31213117   5.171   0.576   4.819 -0.2845 -0.1255  0.0610
   98POPC  H12X13118   5.141   0.681   4.842 -0.7281 -0.5133  1.2907
   98POPC  H12Y13119   5.091   0.506   4.852  0.6924 -1.9544 -1.3547
   98POPC  C31313120   5.204   0.562   4.670  0.1808  0.2361  0.1273
   98POPC  H13X13121   5.110   0.568   4.611  0.2523 -0.9549 -0.1351
   98POPC  H13Y13122   5.256   0.464   4.661 -1.0270 -0.5031  1.0551
   98POPC  C31413123   5.296   0.671   4.615 -0.2732  0.6110  0.1161
   98POPC  H14X13124   5.393   0.678   4.667  0.1770 -0.9117 -0.5036
   98POPC  H14Y13125   5.245   0.768   4.635  0.1865  0.7576  0.5824
   98POPC  C31513126   5.315   0.673   4.463 -0.2670  0.9726  0.1196
   98POPC  H15X13127   5.218   0.650   4.414  0.7441 -3.6959  0.0613
   98POPC  H15Y13128   5.382   0.589   4.436 -0.8656  1.3583 -2.7335
   98POPC  C31613129   5.380   0.803   4.417  0.3049  0.6883  0.1140
   98POPC  H16X13130   5.462   0.829   4.487  0.9131 -0.1444 -0.2798
   98POPC  H16Y13131   5.316   0.894   4.422 -2.4746 -1.2824  1.8185
   98POPC  H16Z13132   5.425   0.784   4.317  3.0040 -1.2866  1.6629
   99POPC     N13133   4.682   6.015   6.346 -0.0125  0.0971 -0.1719
   99POPC   C1213134   4.825   6.060   6.369  0.0062 -0.0650  0.0325
   99POPC  H12A13138   4.836   6.083   6.474 -2.1245  0.5788  0.1472
   99POPC  H12B13139   4.840   6.158   6.327  0.0910  0.0690  0.3739
   99POPC   C1313135   4.656   5.885   6.419 -0.2117 -0.2167 -0.8052
   99POPC  H13A13140   4.741   5.819   6.419  0.8622  1.1278  0.8943
   99POPC  H13B13141   4.617   5.905   6.517  1.2401 -0.2167 -0.2173
   99POPC  H13C13142   4.586   5.830   6.358 -0.8769  0.2886 -0.5082
   99POPC   C1413136   4.589   6.127   6.386 -0.0881  0.0399 -0.1891
   99POPC  H14A13143   4.486   6.098   6.372 -0.4166  1.6091 -1.3090
   99POPC  H14B13144   4.602   6.169   6.484 -2.5538  1.0592 -0.2537
   99POPC  H14C13145   4.603   6.210   6.318 -0.1117  2.2696  2.4470
   99POPC   C1513137   4.662   5.980   6.201 -0.4073 -0.0869 -0.0711
   99POPC  H15A13146   4.691   6.057   6.131 -0.8139 -0.0818 -0.2404
   99POPC  H15B13147   4.557   5.964   6.178 -0.2045 -2.5112  0.6074
   99POPC  H15C13148   4.718   5.892   6.173 -1.9191 -1.2582  0.5233
   99POPC   C1113149   4.938   5.966   6.325 -0.0856 -0.2769  0.2483
   99POPC  H11A13150   4.923   5.863   6.364 -0.5491 -0.0397  0.7089
   99POPC  H11B13151   5.030   6.010   6.368  0.4456  1.1164 -2.1799
   99POPC     P13152   5.049   5.873   6.122  0.2847 -0.3970  0.3376
   99POPC   O1313153   4.974   5.753   6.079  0.2041 -0.1941 -0.0901
   99POPC   O1413154   5.154   5.851   6.223  0.0289 -0.2125  0.6435
   99POPC   O1213155   4.943   5.976   6.182  0.7626  0.1164  0.3033
   99POPC   O1113156   5.121   5.946   5.999 -0.7371 -0.3548 -0.2432
   99POPC    C113157   5.144   6.087   6.008 -0.0628 -0.4697 -0.1134
   99POPC    HA13158   5.222   6.108   5.933 -2.1340  0.1845 -2.1314
   99POPC    HB13159   5.179   6.126   6.106  0.1454 -1.7907  0.3554
   99POPC    C213160   5.022   6.172   5.968  0.2939  0.1430  0.1098
   99POPC    HS13161   4.950   6.169   6.053  1.8418  1.2075  1.5044
   99POPC   O2113162   4.959   6.109   5.857 -0.5333  0.5156  0.3659
   99POPC   C2113163   4.826   6.120   5.847 -0.5626  0.0746  0.2545
   99POPC   O2213164   4.750   6.174   5.925 -0.6786  0.2419  0.0253
   99POPC   C2213165   4.773   6.069   5.713  0.1759 -0.1243  0.0348
   99POPC   H2R13166   4.721   6.152   5.660  1.0332 -1.1184 -2.4247
   99POPC   H2S13167   4.704   5.985   5.731  0.2043 -0.5138 -1.6797
   99POPC    C313168   5.055   6.318   5.933  0.1910  0.0950 -0.1953
   99POPC    HX13169   5.112   6.369   6.014 -0.8420 -0.1866  0.7263
   99POPC    HY13170   4.962   6.377   5.919  0.5542 -0.2145 -4.3099
   99POPC   O3113171   5.139   6.331   5.818  0.2566 -0.3716 -0.1975
   99POPC   C3113172   5.078   6.340   5.700 -0.3409 -0.0957  0.1320
   99POPC   O3213173   4.959   6.354   5.676 -0.2646 -0.1510 -0.2715
   99POPC   C3213174   5.197   6.339   5.606 -0.3879 -0.4212  0.0778
   99POPC   H2X13175   5.252   6.243   5.611 -2.3907 -1.6034 -0.1714
   99POPC   H2Y13176   5.256   6.427   5.638  0.6048 -0.5502 -1.3459
   99POPC   C2313177   4.875   6.004   5.620  0.3210  0.4083 -0.1797
   99POPC   H3R13178   4.914   5.917   5.676  0.0569 -1.1830 -2.3901
   99POPC   H3S13179   4.969   6.062   5.607  0.3996  0.2953 -0.1193
   99POPC   C2413180   4.825   5.961   5.482  0.0310 -0.0694  0.0733
   99POPC   H4R13181   4.798   6.059   5.436  3.4947  0.8531 -0.1046
   99POPC   H4S13182   4.726   5.910   5.485  0.0178 -0.1409 -1.2765
   99POPC   C2513183   4.916   5.892   5.381  0.0473 -0.1640  0.1529
   99POPC   H5R13184   4.862   5.876   5.285 -1.3230 -1.3794  1.0945
   99POPC   H5S13185   4.933   5.793   5.427 -0.4818 -0.5195 -0.4033
   99POPC   C2613186   5.052   5.956   5.355  0.0309 -0.2134 -0.0533
   99POPC   H6R13187   5.112   5.969   5.448 -0.1109 -1.3575  0.2132
   99POPC   H6S13188   5.035   6.051   5.301  0.2197  0.8964  1.8002
   99POPC   C2713189   5.131   5.870   5.256  0.2113 -0.0607 -0.0422
   99POPC   H7R13190   5.073   5.861   5.161 -0.7746 -0.7114  0.6075
   99POPC   H7S13191   5.133   5.768   5.299 -2.8304 -0.6824 -1.2253
   99POPC   C2813192   5.278   5.912   5.244  0.2588 -0.1340  0.2829
   99POPC   H8R13193   5.319   5.912   5.347 -1.2176  0.7359  0.8795
   99POPC   H8S13194   5.264   6.014   5.203  0.3034 -1.1704 -2.3856
   99POPC   C2913195   5.336   5.817   5.143  0.5409  0.2526  0.0836
   99POPC   H9113196   5.309   5.714   5.169  1.1814  0.9560  3.8966
   99POPC  C21013197   5.399   5.846   5.028  0.3929 -0.2850 -0.1349
   99POPC  H10113198   5.447   5.770   4.965  1.1255 -0.4193  0.5677
   99POPC  C21113199   5.447   5.986   5.001 -0.6965  0.0841 -0.1606
   99POPC  H11R13200   5.554   5.994   4.974 -0.8280  0.6351 -0.5407
   99POPC  H11S13201   5.426   6.054   5.086  0.5776  0.4209 -0.1064
   99POPC  C21213202   5.369   6.042   4.881 -1.0153 -0.5883 -0.2694
   99POPC  H12R13203   5.387   6.151   4.876 -0.3841 -0.6124  1.2921
   99POPC  H12S13204   5.262   6.023   4.904 -1.0553  0.8853  0.7885
   99POPC  C21313205   5.404   5.966   4.752  0.0185 -0.2096 -0.2194
   99POPC  H13R13206   5.376   5.859   4.759  0.3219 -0.2717  0.0311
   99POPC  H13S13207   5.514   5.968   4.738 -0.1004 -0.5899 -1.2144
   99POPC  C21413208   5.354   6.012   4.614  0.2600  0.1445 -0.1884
   99POPC  H14R13209   5.348   6.123   4.603  0.6444  0.2183  0.2926
   99POPC  H14S13210   5.252   5.973   4.601 -0.8745  1.4348  3.9754
   99POPC  C21513211   5.438   5.951   4.502  0.4811 -0.2158  0.1684
   99POPC  H15R13212   5.413   5.843   4.493 -2.8998  0.3357  1.8225
   99POPC  H15S13213   5.547   5.956   4.523  0.8630  0.8439 -1.9700
   99POPC  C21613214   5.406   6.009   4.364  0.2193  0.3045  0.4475
   99POPC  H16R13215   5.297   5.998   4.348  0.8040 -2.5107 -2.0128
   99POPC  H16S13216   5.451   5.948   4.282  0.4419  0.9465  0.0861
   99POPC  C21713217   5.454   6.152   4.337 -0.0584  0.3769  0.3343
   99POPC  H17R13218   5.562   6.155   4.365  0.4193  0.5454 -1.4667
   99POPC  H17S13219   5.394   6.217   4.403  0.3734  1.7706 -0.6341
   99POPC  C21813220   5.427   6.214   4.200  1.1966  0.4556  0.1170
   99POPC  H18R13221   5.477   6.313   4.201 -0.8448  1.4779  1.7600
   99POPC  H18S13222   5.321   6.207   4.167  1.7861 -0.7759 -1.6001
   99POPC  H18T13223   5.486   6.155   4.126  0.2487 -0.0713 -0.2276
   99POPC   C3313224   5.150   6.365   5.462  0.1104  0.0928  0.0027
   99POPC   H3X13225   5.109   6.466   5.444 -2.2056 -1.2510 -2.7259
   99POPC   H3Y13226   5.068   6.295   5.434 -1.2365  1.3859  0.6278
   99POPC   C3413227   5.261   6.356   5.358 -0.0172  0.3606 -0.1571
   99POPC   H4X13228   5.296   6.250   5.356 -2.0123 -0.2880 -1.6439
   99POPC   H4Y13229   5.352   6.405   5.400  1.0676 -1.1130 -0.7381
   99POPC   C3513230   5.219   6.404   5.219 -0.2481  0.2947 -0.1104
   99POPC   H5X13231   5.180   6.508   5.223 -0.2638  0.2199  2.2311
   99POPC   H5Y13232   5.138   6.346   5.171 -2.1055  2.1949  0.6476
   99POPC   C3613233   5.331   6.427   5.117  0.0483 -0.5331  0.0208
   99POPC   H6X13234   5.383   6.332   5.094 -0.0742 -0.4276 -0.7054
   99POPC   H6Y13235   5.403   6.501   5.157 -1.5105  0.2247  1.5049
   99POPC   C3713236   5.269   6.477   4.986  0.0347 -0.8198 -0.0816
   99POPC   H7X13237   5.249   6.584   5.005 -1.2690 -0.0808 -4.9270
   99POPC   H7Y13238   5.186   6.417   4.943  1.2547 -0.7730 -2.6435
   99POPC   C3813239   5.379   6.483   4.880 -0.2912  0.5207 -0.3502
   99POPC   H8X13240   5.407   6.377   4.861 -0.0787  0.0879  2.1712
   99POPC   H8Y13241   5.471   6.534   4.916  0.0233 -1.3406  1.5963
   99POPC   C3913242   5.346   6.538   4.741 -0.0866  0.9109 -0.2451
   99POPC   H9X13243   5.348   6.649   4.727  3.0701  0.8523 -0.4590
   99POPC   H9Y13244   5.246   6.500   4.711 -0.4753 -0.7256  2.9614
   99POPC  C31013245   5.438   6.492   4.628  0.3122  0.1014  0.4092
   99POPC  H10X13246   5.371   6.501   4.540 -0.9273  1.4167  1.4589
   99POPC  H10Y13247   5.458   6.383   4.639 -0.1570  0.0858  1.1574
   99POPC  C31113248   5.573   6.563   4.628  0.4179 -0.1009  0.5137
   99POPC  H11X13249   5.640   6.506   4.560 -1.2283 -1.3475 -0.0941
   99POPC  H11Y13250   5.621   6.562   4.729  1.8082 -0.4167 -0.1307
   99POPC  C31213251   5.588   6.711   4.594  0.3639 -0.1855  0.1264
   99POPC  H12X13252   5.502   6.764   4.641  1.5217  0.5946  1.4109
   99POPC  H12Y13253   5.589   6.714   4.483  2.5807 -0.0718  0.1229
   99POPC  C31313254   5.712   6.782   4.649  0.3881 -0.0046 -0.1596
   99POPC  H13X13255   5.802   6.717   4.646  0.4710  0.1493 -1.3149
   99POPC  H13Y13256   5.684   6.811   4.753 -0.4889 -0.6808 -0.1991
   99POPC  C31413257   5.750   6.900   4.560 -0.2223  0.6281  0.4078
   99POPC  H14X13258   5.748   6.853   4.459 -2.0622  0.6627  0.4142
   99POPC  H14Y13259   5.857   6.923   4.579  0.1912 -1.2554  0.4643
   99POPC  C31513260   5.658   7.023   4.558 -0.1549  0.6850  0.9460
   99POPC  H15X13261   5.640   7.051   4.664  3.3330  1.4875  1.3988
   99POPC  H15Y13262   5.563   6.998   4.507  0.2925 -0.3469  0.6018
   99POPC  C31613263   5.705   7.153   4.492 -0.2631  0.1719 -0.1483
   99POPC  H16X13264   5.716   7.138   4.383  0.1335 -1.5058  0.0985
   99POPC  H16Y13265   5.800   7.199   4.527 -0.7856  0.9990  0.1928
   99POPC  H16Z13266   5.630   7.230   4.517 -1.5807 -0.5593 -1.7740
  100POPC     N13267   2.108   5.425   6.046 -0.1995  0.0761 -0.1965
  100POPC   C1213268   2.012   5.423   5.930  0.3314 -1.0123 -0.6244
  100POPC  H12A13272   1.945   5.338   5.941  0.3474 -1.0768 -1.0048
  100POPC  H12B13273   2.066   5.417   5.837  0.9317  0.4800 -0.3733
  100POPC   C1313269   2.193   5.550   6.054  0.0069 -0.0849  0.0985
  100POPC  H13A13274   2.243   5.557   6.150 -0.0641 -2.2393  0.3343
  100POPC  H13B13275   2.260   5.565   5.971 -0.5198  0.8418 -0.1610
  100POPC  H13C13276   2.119   5.627   6.043  1.1087  0.8059 -1.2182
  100POPC   C1413270   2.029   5.417   6.174 -0.7252 -0.3979 -0.5492
  100POPC  H14A13277   2.095   5.436   6.258 -1.0317  2.3882 -0.9036
  100POPC  H14B13278   1.952   5.492   6.173 -0.2260  0.2258  2.7055
  100POPC  H14C13279   1.990   5.316   6.166  0.0611 -0.7663  0.1234
  100POPC   C1513271   2.200   5.306   6.041  0.0248  0.2407 -0.0096
  100POPC  H15A13280   2.257   5.294   5.950  0.1003 -3.2905  0.4198
  100POPC  H15B13281   2.139   5.218   6.055  1.2566 -0.8309 -1.2624
  100POPC  H15C13282   2.262   5.308   6.130  2.1354 -0.5996 -1.4086
  100POPC   C1113283   1.923   5.546   5.910  0.9925 -0.4708 -0.2174
  100POPC  H11A13284   1.856   5.549   5.998 -2.2493 -1.6310 -2.5345
  100POPC  H11B13285   1.851   5.524   5.829 -1.4256 -0.7787  1.9764
  100POPC     P13286   1.924   5.809   5.915 -0.1612  0.0506 -0.0373
  100POPC   O1313287   2.003   5.891   6.009 -0.4336  0.1516  0.1021
  100POPC   O1413288   1.782   5.787   5.948 -0.1092  0.0222  0.1666
  100POPC   O1213289   1.998   5.668   5.901  0.0648  0.1407  0.2452
  100POPC   O1113290   1.931   5.859   5.763  0.5646  0.1825  0.0388
  100POPC    C113291   2.058   5.857   5.696  0.4699 -0.2990 -0.1256
  100POPC    HA13292   2.048   5.808   5.597  0.6413 -0.9619  0.1802
  100POPC    HB13293   2.130   5.793   5.751  0.5774 -0.7438 -0.7805
  100POPC    C213294   2.121   5.996   5.675  0.0715 -0.1392 -0.2705
  100POPC    HS13295   2.153   6.036   5.773  0.0581 -1.1104  0.1410
  100POPC   O2113296   2.024   6.091   5.629 -0.1627 -0.1219  0.2582
  100POPC   C2113297   2.047   6.222   5.628 -0.2364 -0.1038  0.8620
  100POPC   O2213298   2.131   6.282   5.693  0.5324  0.2006 -0.3855
  100POPC   C2213299   1.956   6.298   5.533  0.4598 -0.7078 -0.3107
  100POPC   H2R13300   1.953   6.407   5.558  1.7241 -0.8470  0.4852
  100POPC   H2S13301   1.852   6.262   5.546  1.0272 -2.4902 -0.5941
  100POPC    C313302   2.239   5.985   5.577  0.0449 -0.5946 -0.2547
  100POPC    HX13303   2.297   5.898   5.615 -1.7387 -2.0791 -0.8524
  100POPC    HY13304   2.309   6.071   5.576 -1.5314  0.7117 -0.1955
  100POPC   O3113305   2.183   5.953   5.449 -0.3301  0.0184 -0.2447
  100POPC   C3113306   2.279   5.912   5.366  0.1693 -0.2532  0.4622
  100POPC   O3213307   2.393   5.887   5.401  0.2864 -0.4892 -0.0952
  100POPC   C3213308   2.227   5.901   5.224 -0.3833 -0.0173  0.6422
  100POPC   H2X13309   2.131   5.953   5.208  0.3746  0.4857 -2.6991
  100POPC   H2Y13310   2.206   5.792   5.214 -3.4008  0.5385  0.5394
  100POPC   C2313311   2.002   6.274   5.390  0.4839 -0.7252 -0.3007
  100POPC   H3R13312   1.982   6.166   5.374  0.7168 -0.7245 -0.6059
  100POPC   H3S13313   2.109   6.294   5.371  0.2491  0.3046 -0.5565
  100POPC   C2413314   1.924   6.354   5.285 -0.1304 -0.1170  0.6183
  100POPC   H4R13315   1.966   6.457   5.273 -0.5077 -0.0958 -0.5957
  100POPC   H4S13316   1.819   6.379   5.310 -0.2998  2.1594 -2.1212
  100POPC   C2513317   1.933   6.284   5.150 -0.1256  0.4995  0.2968
  100POPC   H5R13318   1.888   6.349   5.072 -3.2803 -0.6843  1.0468
  100POPC   H5S13319   1.868   6.194   5.152 -0.2855  0.6026 -0.0735
  100POPC   C2613320   2.076   6.243   5.114 -0.4673 -0.1297 -0.3716
  100POPC   H6R13321   2.121   6.164   5.177 -0.3996 -0.3734 -0.7244
  100POPC   H6S13322   2.137   6.336   5.127  1.6742 -1.3981 -1.0895
  100POPC   C2713323   2.094   6.208   4.966  0.3264 -0.1417 -0.2747
  100POPC   H7R13324   2.025   6.275   4.910  2.9744  2.8500 -0.1056
  100POPC   H7S13325   2.071   6.105   4.932 -0.1256  0.1239 -0.7903
  100POPC   C2813326   2.235   6.228   4.910  0.5505 -0.7122  0.0770
  100POPC   H8R13327   2.314   6.175   4.966  0.0225 -0.2318  1.2903
  100POPC   H8S13328   2.265   6.332   4.937 -0.5506 -0.0313 -1.2174
  100POPC   C2913329   2.245   6.190   4.765  0.4361 -0.2309 -0.0592
  100POPC   H9113330   2.232   6.083   4.744 -2.1319 -0.0880  0.6289
  100POPC  C21013331   2.244   6.273   4.660  0.0942 -0.4023 -0.1901
  100POPC  H10113332   2.251   6.229   4.559  2.8666  0.5118 -0.4602
  100POPC  C21113333   2.239   6.423   4.666  0.1914 -0.3767 -0.6787
  100POPC  H11R13334   2.330   6.459   4.718 -0.4137  0.0588  0.0917
  100POPC  H11S13335   2.154   6.454   4.732  2.0506  0.4695  1.3994
  100POPC  C21213336   2.211   6.495   4.534 -0.6840  0.2922 -0.1292
  100POPC  H12R13337   2.202   6.604   4.555 -1.8357  0.1578  0.1153
  100POPC  H12S13338   2.108   6.471   4.499 -0.7941  0.0260  0.3583
  100POPC  C21313339   2.316   6.463   4.428 -0.2663  0.0523  0.3537
  100POPC  H13R13340   2.291   6.511   4.331 -2.5770  0.0605  0.9130
  100POPC  H13S13341   2.307   6.355   4.407 -0.3151  0.8009 -3.8802
  100POPC  C21413342   2.457   6.517   4.452 -0.1195 -0.2409  0.1504
  100POPC  H14R13343   2.482   6.481   4.554 -0.0263  2.1238  1.0039
  100POPC  H14S13344   2.451   6.627   4.436 -1.9885  0.0912  2.8349
  100POPC  C21513345   2.558   6.467   4.349 -0.0084 -0.3504  0.3112
  100POPC  H15R13346   2.520   6.492   4.248 -1.8566 -2.3627  0.4738
  100POPC  H15S13347   2.560   6.357   4.364 -1.9600 -0.3420  0.7826
  100POPC  C21613348   2.692   6.539   4.363 -0.1129 -0.0736 -0.1024
  100POPC  H16R13349   2.727   6.543   4.469 -1.4049  2.0460  0.2702
  100POPC  H16S13350   2.674   6.647   4.344 -0.3438 -0.2705 -1.0096
  100POPC  C21713351   2.799   6.470   4.278 -0.4705  0.1023 -0.6957
  100POPC  H17R13352   2.750   6.459   4.179 -0.6505  1.0359 -0.7118
  100POPC  H17S13353   2.817   6.363   4.304  1.4924  0.3986 -0.7267
  100POPC  C21813354   2.932   6.544   4.269 -0.4893  0.2512  0.2434
  100POPC  H18R13355   2.903   6.645   4.234  1.0849  0.7526  0.3507
  100POPC  H18S13356   2.994   6.500   4.188  0.2899  0.5232  0.6838
  100POPC  H18T13357   2.992   6.546   4.363  0.6032  1.8140 -0.4709
  100POPC   C3313358   2.348   5.934   5.135 -0.5855 -0.1102  0.3301
  100POPC   H3X13359   2.443   5.892   5.176  0.5430 -0.1226 -2.1916
  100POPC   H3Y13360   2.363   6.044   5.135 -2.4922  0.1741  1.2832
  100POPC   C3413361   2.344   5.887   4.990  0.5835  0.7023  0.0278
  100POPC   H4X13362   2.261   5.926   4.927 -0.5746  0.1406  1.1877
  100POPC   H4Y13363   2.342   5.776   4.993  1.1849  0.6364 -1.4149
  100POPC   C3513364   2.473   5.911   4.911  0.5348  0.2462 -0.1890
  100POPC   H5X13365   2.567   5.872   4.956  0.1382 -0.0443  0.3933
  100POPC   H5Y13366   2.476   6.021   4.924  1.5007  0.0150  1.7489
  100POPC   C3613367   2.466   5.875   4.762 -0.2844 -0.4570  0.0148
  100POPC   H6X13368   2.366   5.906   4.723 -0.2865  2.0621  1.9222
  100POPC   H6Y13369   2.476   5.764   4.757  0.0479 -0.4031 -0.5089
  100POPC   C3713370   2.565   5.940   4.666 -0.2869  0.1171  0.3957
  100POPC   H7X13371   2.674   5.933   4.684 -0.2964 -1.2976  0.0168
  100POPC   H7Y13372   2.547   6.048   4.681 -1.1409  0.4071 -2.4015
  100POPC   C3813373   2.533   5.909   4.519  0.1040  0.1388  0.3065
  100POPC   H8X13374   2.428   5.883   4.495  0.3384  0.7732 -1.4704
  100POPC   H8Y13375   2.586   5.812   4.513 -0.3453  0.0156 -1.8921
  100POPC   C3913376   2.599   5.997   4.412  0.1839 -0.2373  0.0463
  100POPC   H9X13377   2.702   6.019   4.447  0.7556 -0.6705 -1.3532
  100POPC   H9Y13378   2.548   6.094   4.399  0.3148 -0.0301  0.9860
  100POPC  C31013379   2.608   5.933   4.273 -0.5889 -1.2861  0.4722
  100POPC  H10X13380   2.669   5.840   4.275  0.3158 -0.7058 -0.0454
  100POPC  H10Y13381   2.677   5.995   4.212 -0.3573 -0.3349  1.6630
  100POPC  C31113382   2.475   5.924   4.197 -0.4218  0.4406 -0.0504
  100POPC  H11X13383   2.432   6.026   4.194  0.6632  0.9423  0.8676
  100POPC  H11Y13384   2.403   5.869   4.261 -0.3577  0.3545 -0.0517
  100POPC  C31213385   2.489   5.854   4.062 -0.1697  0.1156  0.1422
  100POPC  H12X13386   2.587   5.802   4.071 -1.0524 -1.4623  0.8163
  100POPC  H12Y13387   2.494   5.933   3.984  2.0369 -0.7061 -0.5856
  100POPC  C31313388   2.395   5.740   4.022  0.1655 -0.0352 -0.2276
  100POPC  H13X13389   2.293   5.785   4.028  0.4075  0.2481  3.1647
  100POPC  H13Y13390   2.386   5.650   4.087  0.6147  0.6086  0.7439
  100POPC  C31413391   2.423   5.691   3.880  0.3349  0.3582 -0.3291
  100POPC  H14X13392   2.534   5.687   3.873  0.3042  0.2745 -0.7715
  100POPC  H14Y13393   2.389   5.762   3.802 -1.6600 -0.5695 -0.3383
  100POPC  C31513394   2.374   5.553   3.837  0.4335  0.2595 -0.1233
  100POPC  H15X13395   2.271   5.545   3.877  0.1454 -1.2014 -1.0809
  100POPC  H15Y13396   2.437   5.476   3.886  2.1049  1.5068 -0.2632
  100POPC  C31613397   2.374   5.533   3.685 -1.0099  0.0660 -0.1031
  100POPC  H16X13398   2.285   5.579   3.637 -0.8849 -1.8071 -2.1991
  100POPC  H16Y13399   2.373   5.425   3.661 -0.5772 -0.5862  2.6596
  100POPC  H16Z13400   2.472   5.570   3.647 -1.7196  0.5748 -1.4662
  101POPC     N13401   5.770   7.267   1.959 -0.4469  0.2459 -0.1446
  101POPC   C1213402   5.717   7.162   2.053 -0.0414 -0.2873 -0.5059
  101POPC  H12A13406   5.796   7.096   2.084 -2.1182 -3.0932 -0.9929
  101POPC  H12B13407   5.643   7.107   1.998 -0.3312  0.4961 -0.9139
  101POPC   C1313403   5.838   7.381   2.032  0.4487 -0.4660  0.1526
  101POPC  H13A13408   5.866   7.461   1.965  0.9288 -1.8216 -1.3034
  101POPC  H13B13409   5.763   7.421   2.099  0.2772 -2.0095  0.8983
  101POPC  H13C13410   5.921   7.342   2.088 -0.8842  0.7894  3.0797
  101POPC   C1413404   5.862   7.202   1.859  0.0762  1.2891 -0.3511
  101POPC  H14A13411   5.801   7.126   1.813  0.3102 -0.9259  2.8710
  101POPC  H14B13412   5.907   7.276   1.794 -0.3727  2.1570  0.3154
  101POPC  H14C13413   5.945   7.153   1.908 -0.9816  0.6947  0.8533
  101POPC   C1513405   5.658   7.321   1.873 -0.2446  0.3822 -0.3238
  101POPC  H15A13414   5.595   7.370   1.946 -0.1855 -0.7158  0.4784
  101POPC  H15B13415   5.611   7.242   1.817 -1.9285 -0.2545  1.9020
  101POPC  H15C13416   5.694   7.394   1.802  1.6031  1.9035  2.0584
  101POPC   C1113417   5.657   7.210   2.186 -0.7604 -0.6348 -0.7058
  101POPC  H11A13418   5.737   7.246   2.254 -2.5575  1.9295  0.1051
  101POPC  H11B13419   5.622   7.122   2.245  1.7605 -0.2315  1.4701
  101POPC     P13420   5.531   7.410   2.283 -0.2943 -0.1790  0.1876
  101POPC   O1313421   5.384   7.427   2.289 -0.2872 -0.1160  0.1939
  101POPC   O1413422   5.607   7.531   2.244 -0.1479 -0.4831 -0.4801
  101POPC   O1213423   5.556   7.308   2.163  0.1006  0.3781 -0.2083
  101POPC   O1113424   5.589   7.342   2.416 -0.0493  0.1864  0.2679
  101POPC    C113425   5.552   7.398   2.542  0.4769  0.0772  0.4712
  101POPC    HA13426   5.467   7.341   2.586  0.8052  0.4189  1.5591
  101POPC    HB13427   5.522   7.504   2.532  0.9900  0.4237  2.3616
  101POPC    C213428   5.667   7.406   2.643  0.2204  0.4392  0.7367
  101POPC    HS13429   5.740   7.467   2.586  0.4208 -0.3372  0.1557
  101POPC   O2113430   5.726   7.279   2.674 -0.1617  0.2488  0.6887
  101POPC   C2113431   5.855   7.290   2.706  0.2269 -0.0813 -0.7163
  101POPC   O2213432   5.927   7.388   2.694  0.0970  0.0818 -0.1609
  101POPC   C2213433   5.914   7.156   2.749  0.3514  0.0107 -0.5987
  101POPC   H2R13434   6.020   7.170   2.776  0.0993  1.0291 -0.1217
  101POPC   H2S13435   5.907   7.098   2.655  0.1511  3.2181 -2.6279
  101POPC    C313436   5.635   7.483   2.772  0.1274  0.6453  0.5901
  101POPC    HX13437   5.578   7.571   2.736 -1.1702  0.2165  1.5572
  101POPC    HY13438   5.736   7.516   2.806  1.7693 -0.7746 -2.7274
  101POPC   O3113439   5.577   7.409   2.880  0.5174 -0.5204  0.0118
  101POPC   C3113440   5.446   7.384   2.868  0.5172 -0.4048 -0.2262
  101POPC   O3213441   5.375   7.433   2.782  0.6287  0.3723  0.1118
  101POPC   C3213442   5.404   7.293   2.982  0.0154  0.1234  0.0148
  101POPC   H2X13443   5.293   7.284   2.984 -0.0619  0.8600 -0.8066
  101POPC   H2Y13444   5.431   7.344   3.077  1.8665  2.3164 -1.6254
  101POPC   C2313445   5.837   7.082   2.859  0.2359  0.3001 -0.4831
  101POPC   H3R13446   5.731   7.077   2.824 -0.4348 -1.2992  1.7026
  101POPC   H3S13447   5.835   7.136   2.956 -0.5194 -0.6425  0.0391
  101POPC   C2413448   5.881   6.938   2.883 -0.1338  0.2294 -0.2275
  101POPC   H4R13449   5.935   6.908   2.791  1.8265 -0.3346  1.0854
  101POPC   H4S13450   5.794   6.870   2.895  1.4976 -1.9830 -0.5531
  101POPC   C2513451   5.967   6.924   3.009  0.0845  0.9001 -0.3033
  101POPC   H5R13452   5.903   6.970   3.088 -0.3738 -1.4175  0.7123
  101POPC   H5S13453   6.061   6.982   2.999  1.3216 -0.8673  0.8588
  101POPC   C2613454   5.998   6.780   3.050 -1.1379  0.5968 -0.4094
  101POPC   H6R13455   5.902   6.727   3.063 -0.7098  0.1589  1.0201
  101POPC   H6S13456   6.048   6.795   3.148  2.0744 -0.8366 -1.7468
  101POPC   C2713457   6.089   6.704   2.953 -0.2433  0.4305  0.5555
  101POPC   H7R13458   6.023   6.682   2.866  1.9391 -1.3876 -0.6971
  101POPC   H7S13459   6.110   6.603   2.996 -1.7742  0.0540  0.4492
  101POPC   C2813460   6.208   6.787   2.906 -0.0638 -0.3167 -0.3159
  101POPC   H8R13461   6.170   6.868   2.840 -1.3015 -1.8126 -1.4548
  101POPC   H8S13462   6.274   6.717   2.850 -0.3088 -0.6746 -0.1574
  101POPC   C2913463   6.281   6.840   3.026 -0.2289 -0.0136 -0.3502
  101POPC   H9113464   6.298   6.765   3.104 -0.2654 -0.4440 -0.7539
  101POPC  C21013465   6.333   6.964   3.032 -0.2656 -0.0140 -0.0444
  101POPC  H10113466   6.365   7.006   3.129  1.9226  2.4895 -1.7824
  101POPC  C21113467   6.328   7.075   2.931 -0.6992 -0.0242 -0.0355
  101POPC  H11R13468   6.256   7.055   2.849  0.0886  1.4095 -1.0910
  101POPC  H11S13469   6.428   7.094   2.886 -1.0489 -2.9239 -2.1691
  101POPC  C21213470   6.285   7.200   3.008  0.4016  0.0768  0.4214
  101POPC  H12R13471   6.368   7.216   3.080 -1.2313 -1.3652  2.6928
  101POPC  H12S13472   6.191   7.180   3.064 -0.3983  0.7864 -0.6479
  101POPC  C21313473   6.262   7.319   2.915 -0.3537 -0.1296  0.3386
  101POPC  H13R13474   6.207   7.288   2.825 -0.4570 -3.2005  1.4065
  101POPC  H13S13475   6.361   7.358   2.883 -0.7186  0.9184  0.4505
  101POPC  C21413476   6.195   7.432   2.993  0.2586  0.8782 -0.5715
  101POPC  H14R13477   6.201   7.525   2.933 -0.2489  2.1116  1.2399
  101POPC  H14S13478   6.250   7.450   3.088 -0.8017  0.3137  0.1692
  101POPC  C21513479   6.049   7.400   3.026  0.5598  0.4074  0.3306
  101POPC  H15R13480   6.040   7.347   3.124  0.2094 -0.8079 -0.3518
  101POPC  H15S13481   6.010   7.323   2.957  0.9835  0.1911  0.3332
  101POPC  C21613482   5.946   7.514   3.020 -0.0796 -0.1966 -0.2444
  101POPC  H16R13483   5.932   7.537   2.912 -0.3565 -0.0830 -0.1830
  101POPC  H16S13484   5.980   7.604   3.075 -0.9652  0.1332 -0.2256
  101POPC  C21713485   5.814   7.474   3.086 -0.0497 -0.1643 -0.1642
  101POPC  H17R13486   5.800   7.366   3.066  3.3524 -0.8602  0.9184
  101POPC  H17S13487   5.728   7.529   3.042  0.4744 -0.4415 -1.5503
  101POPC  C21813488   5.820   7.510   3.234  0.5188  0.2430 -0.2860
  101POPC  H18R13489   5.889   7.443   3.290 -2.2677 -1.3768  1.3039
  101POPC  H18S13490   5.719   7.503   3.280 -0.3536  0.6714 -2.1108
  101POPC  H18T13491   5.848   7.617   3.241  0.9519 -0.0027  2.2398
  101POPC   C3313492   5.463   7.152   2.975  0.1597  0.1693  0.2896
  101POPC   H3X13493   5.565   7.179   2.938  0.0460  0.2051 -0.0001
  101POPC   H3Y13494   5.418   7.079   2.905  0.9356  0.5923 -0.6653
  101POPC   C3413495   5.482   7.068   3.101 -0.2414  0.1218  0.3168
  101POPC   H4X13496   5.377   7.057   3.135 -1.7221  0.2591 -3.9574
  101POPC   H4Y13497   5.538   7.130   3.175 -0.4133 -0.4969  0.9745
  101POPC   C3513498   5.558   6.936   3.081 -0.2649  0.1258  0.1986
  101POPC   H5X13499   5.656   6.946   3.031 -0.1809  0.6486  0.4627
  101POPC   H5Y13500   5.490   6.876   3.017  0.7779 -1.1536  0.2709
  101POPC   C3613501   5.571   6.846   3.204  0.8867 -0.1364 -0.1138
  101POPC   H6X13502   5.659   6.887   3.259  1.0880 -1.8115  0.8468
  101POPC   H6Y13503   5.611   6.749   3.167  1.7602 -0.6421  2.0650
  101POPC   C3713504   5.444   6.829   3.287  0.3407  0.1002 -0.9035
  101POPC   H7X13505   5.366   6.761   3.245 -0.6998  0.4833  0.3747
  101POPC   H7Y13506   5.395   6.928   3.301  4.0104  1.6536  1.6108
  101POPC   C3813507   5.475   6.780   3.428  0.0308  0.0533 -0.8517
  101POPC   H8X13508   5.376   6.780   3.480 -0.4319 -2.9403 -1.6537
  101POPC   H8Y13509   5.541   6.860   3.468 -1.5636 -0.0760  2.2874
  101POPC   C3913510   5.552   6.648   3.426  0.5633  0.3531 -0.1233
  101POPC   H9X13511   5.650   6.661   3.376  0.1984  2.5519 -0.3230
  101POPC   H9Y13512   5.492   6.571   3.373 -0.1186  0.3186  0.6808
  101POPC  C31013513   5.564   6.591   3.568 -0.0131  0.3338 -0.0804
  101POPC  H10X13514   5.631   6.503   3.576  0.1955  0.6515  2.1152
  101POPC  H10Y13515   5.462   6.571   3.606  0.0593 -0.4553 -0.2870
  101POPC  C31113516   5.613   6.691   3.674  0.3227  0.4496 -0.3424
  101POPC  H11X13517   5.599   6.635   3.769  0.9741 -0.3858 -0.7289
  101POPC  H11Y13518   5.549   6.781   3.684  1.1017  1.1261 -1.3597
  101POPC  C31213519   5.762   6.724   3.657  0.2969  0.4237 -0.6236
  101POPC  H12X13520   5.772   6.778   3.561 -0.6711 -2.0722 -2.1934
  101POPC  H12Y13521   5.819   6.631   3.636  1.6796  0.4515  2.7768
  101POPC  C31313522   5.830   6.802   3.769  0.0348 -0.1599 -0.0518
  101POPC  H13X13523   5.925   6.836   3.723 -0.4724  1.3827  0.0250
  101POPC  H13Y13524   5.851   6.722   3.843 -0.8380 -1.7234 -1.4528
  101POPC  C31413525   5.754   6.927   3.815  0.9136  0.2003  0.4332
  101POPC  H14X13526   5.667   6.955   3.753 -0.2666 -0.2863  1.8504
  101POPC  H14Y13527   5.823   7.014   3.810 -0.7751  1.5270  0.1807
  101POPC  C31513528   5.692   6.904   3.953  0.0464  0.2481  0.0538
  101POPC  H15X13529   5.760   6.862   4.031  2.6616  0.4637 -2.0472
  101POPC  H15Y13530   5.621   6.819   3.942 -0.1569  0.4367 -0.1008
  101POPC  C31613531   5.612   7.016   4.020  0.0327  0.0925  0.2996
  101POPC  H16X13532   5.580   6.979   4.119  1.0714  0.2313  0.6984
  101POPC  H16Y13533   5.517   7.043   3.969 -0.8781  0.1824  1.9958
  101POPC  H16Z13534   5.682   7.102   4.028 -1.1816  0.8254  3.6778
  102POPC     N13535   6.828   5.462   2.035  0.3223 -0.2876 -0.2406
  102POPC   C1213536   6.822   5.567   2.143  0.3499 -0.0331 -0.4880
  102POPC  H12A13540   6.829   5.667   2.103 -0.8094 -0.7062 -2.4464
  102POPC  H12B13541   6.916   5.555   2.195  1.4777  1.4735 -2.0862
  102POPC   C1313537   6.734   5.491   1.920  0.2262 -0.8216 -0.2985
  102POPC  H13A13542   6.745   5.425   1.836  0.5736  0.1380 -1.0135
  102POPC  H13B13543   6.633   5.478   1.957 -1.1126  1.3500 -3.0416
  102POPC  H13C13544   6.765   5.585   1.876 -1.3906 -0.1864 -0.1386
  102POPC   C1413538   6.968   5.461   1.980  0.4093 -0.5162 -0.0181
  102POPC  H14A13545   6.999   5.557   1.941 -0.8245 -0.2940 -0.4567
  102POPC  H14B13546   7.041   5.440   2.057 -0.2633 -1.6318  0.3293
  102POPC  H14C13547   6.975   5.384   1.904  0.5237 -1.0157  0.4965
  102POPC   C1513539   6.792   5.324   2.084 -0.1024 -0.1608 -0.1870
  102POPC  H15A13548   6.693   5.302   2.120  0.5662 -0.0041  1.8126
  102POPC  H15B13549   6.862   5.281   2.155  0.9271 -0.2469 -1.2300
  102POPC  H15C13550   6.814   5.252   2.007 -1.0665  0.4487 -1.0383
  102POPC   C1113551   6.706   5.562   2.242  0.0822  0.7837 -0.7509
  102POPC  H11A13552   6.699   5.648   2.312 -2.9416  0.8743 -1.1020
  102POPC  H11B13553   6.727   5.476   2.309  3.1179  2.0988  0.0551
  102POPC     P13554   6.491   5.670   2.179 -0.0307  0.4388  0.2988
  102POPC   O1313555   6.367   5.648   2.103  0.4031  0.2756 -0.3613
  102POPC   O1413556   6.568   5.783   2.123 -0.4754  0.4499 -0.2900
  102POPC   O1213557   6.582   5.538   2.176 -0.1271  0.3856 -0.2172
  102POPC   O1113558   6.459   5.689   2.335 -0.0113 -0.1405  0.3747
  102POPC    C113559   6.339   5.630   2.387 -0.0783 -0.0437  0.3284
  102POPC    HA13560   6.358   5.614   2.495  0.5872  1.1705  0.4127
  102POPC    HB13561   6.308   5.535   2.339  1.5766 -0.6708  0.4641
  102POPC    C213562   6.217   5.723   2.377  0.1085  0.2607  0.8303
  102POPC    HS13563   6.174   5.724   2.275  0.7611  0.7375  0.5604
  102POPC   O2113564   6.259   5.849   2.428  0.0121  0.3823  0.6081
  102POPC   C2113565   6.190   5.947   2.370 -0.1081  0.0569  0.2038
  102POPC   O2213566   6.095   5.931   2.295  0.1204 -0.4442  0.0216
  102POPC   C2213567   6.235   6.085   2.417  0.0114  0.1626 -0.2172
  102POPC   H2R13568   6.156   6.158   2.391  1.1398  1.0430 -1.2021
  102POPC   H2S13569   6.325   6.115   2.359 -0.8815 -0.4849 -1.9885
  102POPC    C313570   6.097   5.667   2.457 -0.1469 -0.4140 -0.0127
  102POPC    HX13571   6.080   5.566   2.415 -2.1441  0.3973 -1.2531
  102POPC    HY13572   6.002   5.725   2.453 -0.3916 -0.9576 -2.8923
  102POPC   O3113573   6.138   5.660   2.594  0.2512 -0.3435 -0.1275
  102POPC   C3113574   6.120   5.545   2.659 -0.1476 -0.2435 -0.0651
  102POPC   O3213575   6.051   5.449   2.626 -0.4508 -0.1066  0.1644
  102POPC   C3213576   6.190   5.557   2.793  0.1056 -0.4323 -0.1798
  102POPC   H2X13577   6.195   5.457   2.840 -1.4222 -1.3127 -1.8167
  102POPC   H2Y13578   6.131   5.622   2.861  0.9019  0.0759  0.0382
  102POPC   C2313579   6.255   6.086   2.568 -0.2845  0.2557 -0.1785
  102POPC   H3R13580   6.338   6.014   2.589 -0.9526  0.0024  1.7281
  102POPC   H3S13581   6.168   6.058   2.631 -1.0318  2.4032 -0.2219
  102POPC   C2413582   6.284   6.230   2.610 -0.2404  0.3040 -0.3772
  102POPC   H4R13583   6.215   6.298   2.555 -0.6220 -1.2446 -1.8672
  102POPC   H4S13584   6.383   6.260   2.571 -0.0966 -0.2764 -0.4697
  102POPC   C2513585   6.294   6.233   2.763  0.3960  0.3685 -0.4189
  102POPC   H5R13586   6.384   6.177   2.795 -1.0485 -0.5835  2.1009
  102POPC   H5S13587   6.198   6.191   2.799  0.1457  1.6686  0.4545
  102POPC   C2613588   6.301   6.373   2.824 -0.3332  0.1907  0.0782
  102POPC   H6R13589   6.198   6.413   2.819 -0.8021 -0.9717  0.2651
  102POPC   H6S13590   6.379   6.424   2.764  0.7645  1.2518  2.3142
  102POPC   C2713591   6.358   6.376   2.967  0.1622 -0.8698 -0.0938
  102POPC   H7R13592   6.377   6.483   2.991  1.8721 -1.5528  1.6655
  102POPC   H7S13593   6.447   6.311   2.962  1.1236  0.4202  0.1085
  102POPC   C2813594   6.268   6.314   3.074 -0.7895 -0.1481 -0.4678
  102POPC   H8R13595   6.248   6.207   3.049 -1.0491  0.0158 -0.9827
  102POPC   H8S13596   6.170   6.367   3.080 -0.2700  0.8100 -0.3821
  102POPC   C2913597   6.349   6.337   3.198 -0.4320 -0.2616 -0.6803
  102POPC   H9113598   6.439   6.274   3.202 -0.2262 -0.0423 -1.8736
  102POPC  C21013599   6.336   6.432   3.292  0.0528 -1.1495  0.2981
  102POPC  H10113600   6.395   6.425   3.384 -2.8670 -0.2093  2.3050
  102POPC  C21113601   6.227   6.534   3.306  0.8252 -0.3731  0.6716
  102POPC  H11R13602   6.157   6.527   3.221  1.8694 -0.7494 -0.1661
  102POPC  H11S13603   6.275   6.635   3.303  0.7943 -0.2852  2.4724
  102POPC  C21213604   6.133   6.524   3.427 -0.0487  0.2938  0.0484
  102POPC  H12R13605   6.077   6.429   3.424  0.1221  0.1644  0.8732
  102POPC  H12S13606   6.054   6.602   3.414 -0.2944  0.0125 -0.1423
  102POPC  C21313607   6.217   6.540   3.554  0.0307  0.1516  0.0143
  102POPC  H13R13608   6.295   6.617   3.538 -0.1420  0.0959 -1.1715
  102POPC  H13S13609   6.266   6.442   3.565 -0.0071 -0.0563 -1.5665
  102POPC  C21413610   6.135   6.582   3.676  0.1340  0.0521  0.1176
  102POPC  H14R13611   6.049   6.513   3.690  0.6622 -0.6441 -0.0699
  102POPC  H14S13612   6.095   6.684   3.659  1.1525  0.2373 -1.1946
  102POPC  C21513613   6.212   6.578   3.809  0.3051  0.4621  0.0321
  102POPC  H15R13614   6.299   6.647   3.805  1.3196 -0.7346  1.0391
  102POPC  H15S13615   6.252   6.477   3.833  0.1490  0.4286  0.1554
  102POPC  C21613616   6.133   6.620   3.933  0.5394  0.6871  0.1026
  102POPC  H16R13617   6.033   6.572   3.933  0.9441 -0.2618  2.6403
  102POPC  H16S13618   6.110   6.729   3.926 -1.7102  0.1815 -0.4688
  102POPC  C21713619   6.213   6.599   4.062  0.3302  0.1521  0.1437
  102POPC  H17R13620   6.161   6.662   4.138 -1.6667  1.3131 -2.1137
  102POPC  H17S13621   6.315   6.636   4.041  1.0905 -0.3341  2.7883
  102POPC  C21813622   6.225   6.458   4.118  0.4679  0.0941 -0.0326
  102POPC  H18R13623   6.258   6.445   4.224 -1.8862 -1.6382  0.5342
  102POPC  H18S13624   6.295   6.394   4.061  0.9031 -0.1243  0.7320
  102POPC  H18T13625   6.121   6.418   4.121  0.2437  0.5229 -1.8455
  102POPC   C3313626   6.335   5.604   2.776 -0.0214  0.1352  0.2621
  102POPC   H3X13627   6.346   5.705   2.731 -2.0844 -0.2897 -1.2964
  102POPC   H3Y13628   6.398   5.555   2.699  1.4698  0.2003  1.4405
  102POPC   C3413629   6.421   5.592   2.901  0.7417 -0.3116 -0.3022
  102POPC   H4X13630   6.385   5.668   2.974 -0.6704 -0.2519 -1.0659
  102POPC   H4Y13631   6.527   5.610   2.873  0.5615 -1.5086 -1.8213
  102POPC   C3513632   6.414   5.452   2.963 -0.6040 -0.2860 -0.3837
  102POPC   H5X13633   6.413   5.368   2.891  1.1491  0.6437 -1.5383
  102POPC   H5Y13634   6.320   5.454   3.022 -1.2811 -0.8047 -1.4293
  102POPC   C3613635   6.522   5.438   3.071 -0.4055 -0.2574 -0.5758
  102POPC   H6X13636   6.492   5.506   3.154  2.0984 -1.6630  1.5473
  102POPC   H6Y13637   6.628   5.446   3.040 -1.2644  2.4454 -3.1368
  102POPC   C3713638   6.518   5.296   3.127  0.2179  0.0026  0.1334
  102POPC   H7X13639   6.548   5.213   3.061 -0.9200  0.6629 -1.2308
  102POPC   H7Y13640   6.410   5.272   3.136 -0.7386  2.9743 -2.4873
  102POPC   C3813641   6.593   5.287   3.261  0.4033 -0.2458  0.0112
  102POPC   H8X13642   6.572   5.185   3.298 -0.0002  0.2075  1.0312
  102POPC   H8Y13643   6.558   5.361   3.336 -2.7785 -2.7995  1.1656
  102POPC   C3913644   6.741   5.325   3.262  0.2565  0.3308  0.0692
  102POPC   H9X13645   6.746   5.436   3.255 -1.5347  0.6312  2.6769
  102POPC   H9Y13646   6.782   5.280   3.169 -2.3067  0.9283 -1.4025
  102POPC  C31013647   6.800   5.276   3.395  0.2093 -0.5211 -0.2223
  102POPC  H10X13648   6.798   5.165   3.400 -2.6429 -0.5737 -1.1628
  102POPC  H10Y13649   6.736   5.321   3.474 -0.2127  0.8770 -1.3413
  102POPC  C31113650   6.949   5.301   3.416  0.1702 -0.4799  0.0059
  102POPC  H11X13651   6.978   5.408   3.416  0.7954 -0.6456 -0.8184
  102POPC  H11Y13652   7.000   5.243   3.337 -0.6681  0.3457 -1.1550
  102POPC  C31213653   6.993   5.237   3.548  0.0364  0.0448  0.3093
  102POPC  H12X13654   7.103   5.239   3.559 -0.0735  2.2532  1.2659
  102POPC  H12Y13655   6.968   5.129   3.541 -1.3452  0.3869 -0.2890
  102POPC  C31313656   6.935   5.299   3.675 -0.0478  0.2966  0.1477
  102POPC  H13X13657   6.830   5.270   3.699 -0.0596 -0.6913 -1.0752
  102POPC  H13Y13658   6.924   5.409   3.665  1.1411  0.4319  0.2974
  102POPC  C31413659   7.038   5.283   3.787  0.5132 -0.2346 -0.4441
  102POPC  H14X13660   7.019   5.359   3.866  0.7068 -1.7186  1.0430
  102POPC  H14Y13661   7.140   5.310   3.752  0.8005 -0.3480  0.3115
  102POPC  C31513662   7.038   5.144   3.851 -0.1912 -0.1932 -0.3467
  102POPC  H15X13663   6.932   5.117   3.871 -0.4266  1.3482  0.5676
  102POPC  H15Y13664   7.083   5.156   3.952  0.7152 -3.9606 -0.2508
  102POPC  C31613665   7.111   5.034   3.775  0.3581 -0.1645  0.1313
  102POPC  H16X13666   7.208   5.081   3.748  0.3506 -0.2030  0.0394
  102POPC  H16Y13667   7.061   5.014   3.678 -0.5208 -1.3999  0.8287
  102POPC  H16Z13668   7.123   4.939   3.831 -0.4156 -1.1254 -1.2903
  103POPC     N13669   6.352   7.652   1.907  0.0325 -0.1815 -0.3141
  103POPC   C1213670   6.296   7.789   1.938  0.2878  0.0136 -0.7160
  103POPC  H12A13674   6.228   7.782   2.022  0.2893 -1.2337 -0.8029
  103POPC  H12B13675   6.250   7.833   1.851 -1.9852  1.2760  1.0510
  103POPC   C1313671   6.418   7.603   2.034 -0.2568  0.1309 -0.0419
  103POPC  H13A13676   6.340   7.563   2.097 -0.4851 -0.9048 -0.9740
  103POPC  H13B13677   6.492   7.525   2.030  3.0795  3.1975 -1.1028
  103POPC  H13C13678   6.476   7.679   2.086  0.8343  0.9036 -2.3060
  103POPC   C1413672   6.244   7.556   1.861 -0.2537 -0.3450  0.6718
  103POPC  H14A13679   6.170   7.549   1.938 -1.5414 -1.1060 -0.6172
  103POPC  H14B13680   6.200   7.597   1.771 -0.5201 -2.3226 -0.1283
  103POPC  H14C13681   6.301   7.470   1.828 -0.2230 -0.3670  0.7819
  103POPC   C1513673   6.454   7.662   1.797  0.7227  0.2208  0.3603
  103POPC  H15A13682   6.479   7.563   1.762  0.5026 -0.2732  1.5800
  103POPC  H15B13683   6.535   7.724   1.833  1.4514 -0.4488 -0.1162
  103POPC  H15C13684   6.414   7.712   1.710 -0.5263  0.8704  1.3030
  103POPC   C1113685   6.389   7.902   1.983  0.1405  0.0403 -0.4781
  103POPC  H11A13686   6.331   0.033   2.003 -2.4678 -1.7384  0.7298
  103POPC  H11B13687   6.450   7.932   1.895  2.8505  1.9981  1.9799
  103POPC     P13688   6.473   0.020   2.207  0.3071  0.0795 -0.3218
  103POPC   O1313689   6.546   0.134   2.147 -0.2033  0.5077 -0.1236
  103POPC   O1413690   6.530   7.928   2.332 -0.0179 -0.0033 -0.1907
  103POPC   O1213691   6.472   7.868   2.094  0.1983  0.1912 -0.4751
  103POPC   O1113692   6.324   0.065   2.239  0.4195 -0.0292  0.3618
  103POPC    C113693   6.238   7.925   2.291 -0.2310  0.2266 -0.1102
  103POPC    HA13694   6.282   7.824   2.303  0.2363  0.2518 -1.5888
  103POPC    HB13695   6.148   7.923   2.227  1.3981  1.4272 -2.4992
  103POPC    C213696   6.200   7.956   2.437 -0.5308 -0.5575 -0.0227
  103POPC    HS13697   6.182   0.102   2.454 -2.0254 -0.5981 -1.0247
  103POPC   O2113698   6.300   7.905   2.525 -0.2078  0.0243 -0.0483
  103POPC   C2113699   6.363   0.036   2.596  0.5329 -0.1038 -0.4787
  103POPC   O2213700   6.349   0.157   2.584  0.2841 -0.0580  0.2358
  103POPC   C2213701   6.457   7.934   2.697  0.0493  0.0183  0.0812
  103POPC   H2R13702   6.557   0.014   2.671  0.3218 -0.4965  0.1994
  103POPC   H2S13703   6.454   7.823   2.699 -1.5973  0.0672  2.7717
  103POPC    C313704   6.062   7.902   2.476 -0.8651  0.0600 -0.3430
  103POPC    HX13705   6.057   7.794   2.451  2.1286  0.1407 -1.4014
  103POPC    HY13706   5.989   7.961   2.417 -0.4783 -0.9796 -1.8702
  103POPC   O3113707   6.047   7.924   2.617  0.5880 -0.0524 -0.1633
  103POPC   C3113708   5.927   7.887   2.663  0.3080  0.2149 -0.6703
  103POPC   O3213709   5.836   7.842   2.595 -0.1448 -0.0508  0.1133
  103POPC   C3213710   5.921   7.903   2.814  0.4082 -0.3002 -0.6099
  103POPC   H2X13711   5.939   0.047   2.841 -1.2073 -0.0534 -0.3125
  103POPC   H2Y13712   6.000   7.842   2.863 -1.8913 -0.4927  3.0465
  103POPC   C2313713   6.418   0.026   2.834 -0.6426  0.0902 -0.1291
  103POPC   H3R13714   6.409   0.137   2.842  0.9936  0.2031  0.1645
  103POPC   H3S13715   6.495   7.958   2.908  0.3637  2.8846  0.0599
  103POPC   C2413716   6.284   7.936   2.887 -0.6041  0.0876  0.0065
  103POPC   H4R13717   6.253   7.854   2.819  1.2896 -0.6768  0.0372
  103POPC   H4S13718   6.206   0.051   2.869  0.5432  1.8853  2.2186
  103POPC   C2513719   6.287   7.890   3.033  0.4029 -0.5106 -0.2008
  103POPC   H5R13720   6.394   7.871   3.058  0.8118  1.8241 -0.1358
  103POPC   H5S13721   6.233   7.793   3.039  0.0644 -0.3782 -1.0354
  103POPC   C2613722   6.222   0.022   3.134  0.1853 -0.2865 -0.5101
  103POPC   H6R13723   6.210   7.943   3.237 -4.5687  1.1165 -0.3795
  103POPC   H6S13724   6.119   0.035   3.094 -0.3572 -0.3427  0.8342
  103POPC   C2713725   6.290   0.158   3.145  0.3130 -0.3914  0.0544
  103POPC   H7R13726   6.205   0.226   3.167  0.3704 -0.1174 -0.5363
  103POPC   H7S13727   6.337   0.179   3.046 -1.2603 -0.9803 -0.8303
  103POPC   C2813728   6.396   0.162   3.255  0.1653  0.0955  0.1800
  103POPC   H8R13729   6.475   0.237   3.235  0.7724 -0.4404  0.5544
  103POPC   H8S13730   6.443   0.062   3.248  0.1011  0.2402 -2.6539
  103POPC   C2913731   6.335   0.189   3.390  0.2880 -0.1290  0.2806
  103POPC   H9113732   6.249   0.256   3.377  1.9132  2.6292  3.0737
  103POPC  C21013733   6.378   0.143   3.508  0.0659 -0.0058  0.4111
  103POPC  H10113734   6.331   0.190   3.595 -1.0165  2.9384 -1.7127
  103POPC  C21113735   6.494   0.049   3.528  0.1266  0.0162  0.1545
  103POPC  H11R13736   6.532   7.955   3.439 -0.1419  0.4420 -0.2579
  103POPC  H11S13737   6.454   7.926   3.587  0.2844 -1.0396 -1.1757
  103POPC  C21213738   6.620   0.108   3.592  0.0143  0.3810  0.0413
  103POPC  H12R13739   6.634   0.059   3.690  0.3254  0.1553 -0.1141
  103POPC  H12S13740   6.609   0.217   3.607  2.2868  0.3375  2.3793
  103POPC  C21313741   6.752   0.072   3.522  0.1648 -0.3770  0.7075
  103POPC  H13R13742   6.724   0.077   3.415 -1.1597 -2.4176  0.9241
  103POPC  H13S13743   6.768   7.926   3.540 -1.1359 -0.9849 -1.3600
  103POPC  C21413744   6.855   0.174   3.571  0.2467  0.2981 -0.8460
  103POPC  H14R13745   6.852   0.185   3.681  2.8579  2.1507 -0.9115
  103POPC  H14S13746   6.846   0.276   3.528 -1.5329 -0.0721 -1.4187
  103POPC  C21513747   6.994   0.119   3.537  0.2005 -0.2531 -0.1521
  103POPC  H15R13748   7.004   0.097   3.428  2.4921 -0.1656  0.0268
  103POPC  H15S13749   7.017   0.031   3.600  0.4098  0.5369  0.8729
  103POPC  C21613750   7.094   0.227   3.577 -0.4232  0.2294  0.1075
  103POPC  H16R13751   7.052   0.329   3.558 -0.5083  0.1646 -0.0603
  103POPC  H16S13752   7.182   0.204   3.513  1.8622  1.1656  2.8032
  103POPC  C21713753   7.144   0.225   3.721  0.5914 -0.0811 -0.2455
  103POPC  H17R13754   7.119   0.127   3.766 -0.9327 -0.1733 -1.2804
  103POPC  H17S13755   7.095   0.304   3.782  1.3202 -0.9322  1.4547
  103POPC  C21813756   7.295   0.243   3.740  0.5086  0.1487  0.2187
  103POPC  H18R13757   7.332   0.340   3.700 -0.2276 -0.0925 -1.0573
  103POPC  H18S13758   7.354   0.165   3.688 -0.0798  1.1191 -1.9639
  103POPC  H18T13759   7.330   0.242   3.845  0.3100  0.1909  0.2866
  103POPC   C3313760   5.784   7.863   2.868  0.6066  0.3512  0.3854
  103POPC   H3X13761   5.769   7.757   2.839 -0.0987  0.3642  0.6818
  103POPC   H3Y13762   5.707   7.930   2.824 -0.9599 -1.1055  0.8410
  103POPC   C3413763   5.765   7.865   3.020 -0.8184 -0.0406  0.2220
  103POPC   H4X13764   5.843   7.794   3.056  0.3790  0.4444 -1.3595
  103POPC   H4Y13765   5.663   7.834   3.049 -0.6654 -0.9079 -0.1398
  103POPC   C3513766   5.787   0.048   3.062 -0.4321  0.0737 -0.2205
  103POPC   H5X13767   5.719   0.123   3.015  0.1049  0.1587 -0.8602
  103POPC   H5Y13768   5.894   0.064   3.039 -0.4465  0.1890 -0.2114
  103POPC   C3613769   5.763   0.062   3.213 -0.4824 -0.0801 -0.2149
  103POPC   H6X13770   5.655   0.064   3.239 -0.4996  0.1734 -0.3052
  103POPC   H6Y13771   5.785   0.169   3.232 -0.7603 -0.1744  0.6490
  103POPC   C3713772   5.827   7.915   3.300  0.1451  0.1964 -0.2789
  103POPC   H7X13773   5.930   7.904   3.260  0.6952  0.3285  1.0809
  103POPC   H7Y13774   5.771   7.821   3.281 -0.1320  0.9533 -3.4654
  103POPC   C3813775   5.828   7.942   3.451  0.1924  0.1881 -0.2783
  103POPC   H8X13776   5.906   0.059   3.461  0.0716  0.3019  0.0801
  103POPC   H8Y13777   5.881   7.852   3.488  1.5553  2.0455  2.4760
  103POPC   C3913778   5.694   0.010   3.519  0.1130  0.2708 -0.4533
  103POPC   H9X13779   5.615   7.905   3.480  2.5182 -3.3512  0.5633
  103POPC   H9Y13780   5.681   0.115   3.485  2.0383  1.1337  1.3304
  103POPC  C31013781   5.706   7.961   3.671  0.1954 -0.2948 -0.5004
  103POPC  H10X13782   5.629   0.073   3.702 -0.2197 -0.9427  0.0254
  103POPC  H10Y13783   5.807   0.034   3.702  0.4507 -2.0849  0.8121
  103POPC  C31113784   5.666   7.828   3.736  0.2434 -0.1490 -0.0899
  103POPC  H11X13785   5.707   7.745   3.676 -1.3429  0.0958 -1.5457
  103POPC  H11Y13786   5.555   7.823   3.736  0.2245  0.1374 -0.9157
  103POPC  C31213787   5.719   7.823   3.879 -0.1397  0.2197  0.0674
  103POPC  H12X13788   5.824   7.786   3.888  0.2330  1.5849  1.5761
  103POPC  H12Y13789   5.651   7.747   3.922 -0.1391 -0.7451 -1.6017
  103POPC  C31313790   5.706   7.953   3.959  0.8505  0.3264  0.0659
  103POPC  H13X13791   5.608   0.037   3.935 -0.5751 -2.3556  0.4772
  103POPC  H13Y13792   5.788   0.056   3.924  0.6420  0.0627 -1.0011
  103POPC  C31413793   5.730   7.927   4.108 -0.1588  0.5631  0.2762
  103POPC  H14X13794   5.659   7.847   4.137  1.4510 -1.1636 -0.4154
  103POPC  H14Y13795   5.715   0.047   4.181  1.0035 -0.4871  1.7888
  103POPC  C31513796   5.880   7.899   4.126 -0.2026 -0.0818 -0.3481
  103POPC  H15X13797   5.932   0.021   4.075  2.6031 -0.2871  2.0212
  103POPC  H15Y13798   5.900   7.801   4.078  0.4078 -0.3992  0.5602
  103POPC  C31613799   5.931   7.915   4.269 -0.3723  0.2554 -0.3234
  103POPC  H16X13800   6.041   7.905   4.272 -0.3110  1.0327 -0.0815
  103POPC  H16Y13801   5.882   7.845   4.341  0.8166 -0.4492 -0.1931
  103POPC  H16Z13802   5.909   0.057   4.299  2.7358  0.7305  0.5871
  104POPC     N13803   4.095   2.413   1.924 -0.1429 -0.0285  0.2446
  104POPC   C1213804   4.150   2.530   2.003  0.5861 -0.2085  0.0064
  104POPC  H12A13808   4.106   2.614   1.951  0.3066  0.7023  1.6857
  104POPC  H12B13809   4.255   2.545   1.981 -0.1325 -0.8782 -4.3437
  104POPC   C1313805   3.945   2.430   1.913 -0.0586  0.6795  0.1294
  104POPC  H13A13810   3.928   2.523   1.862  0.7513 -0.1387 -1.7126
  104POPC  H13B13811   3.912   2.362   1.835 -1.7502  1.7679 -0.1148
  104POPC  H13C13812   3.896   2.416   2.008  0.0322  3.6363  0.6494
  104POPC   C1413806   4.159   2.421   1.787  0.6437  0.4529  0.6331
  104POPC  H14A13813   4.103   2.352   1.726 -1.8654  2.2815  0.7925
  104POPC  H14B13814   4.155   2.520   1.746  0.0993 -0.6846 -2.1459
  104POPC  H14C13815   4.265   2.405   1.792  0.5886  0.3047  1.5596
  104POPC   C1513807   4.132   2.280   1.985  0.1332  0.1119  0.3830
  104POPC  H15A13816   4.240   2.272   1.985  0.0423 -1.2539  0.7821
  104POPC  H15B13817   4.090   2.212   1.912 -0.5987 -0.3156  1.1953
  104POPC  H15C13818   4.088   2.275   2.083  0.4133  0.4303  0.5256
  104POPC   C1113819   4.116   2.550   2.151 -0.0389 -0.5903 -0.0865
  104POPC  H11A13820   4.008   2.544   2.176  0.0259 -1.3341  0.0378
  104POPC  H11B13821   4.147   2.654   2.172 -0.9557  0.1452 -2.1610
  104POPC     P13822   4.149   2.407   2.368 -0.2774 -0.1226  0.0869
  104POPC   O1313823   4.261   2.358   2.451  0.1835 -0.0622 -0.4953
  104POPC   O1413824   4.036   2.314   2.346 -0.0883 -0.2890 -0.1851
  104POPC   O1213825   4.202   2.467   2.229 -0.0334 -0.4811  0.0239
  104POPC   O1113826   4.088   2.535   2.442 -0.7225 -0.2176 -0.1131
  104POPC    C113827   4.186   2.635   2.470 -0.9798 -0.1252  0.4578
  104POPC    HA13828   4.133   2.730   2.449  1.7885  1.5996  1.0255
  104POPC    HB13829   4.280   2.639   2.412 -1.8786  1.0808 -0.9388
  104POPC    C213830   4.222   2.641   2.620 -0.4186 -0.0522  0.3205
  104POPC    HS13831   4.332   2.628   2.621 -0.2965  0.9601  1.5479
  104POPC   O2113832   4.143   2.542   2.686  0.0341 -0.5285  0.1468
  104POPC   C2113833   4.212   2.440   2.738  0.0885 -0.4995  0.1321
  104POPC   O2213834   4.331   2.446   2.764  0.0970  0.4839 -0.1022
  104POPC   C2213835   4.120   2.321   2.764 -0.3729 -0.1615  0.0554
  104POPC   H2R13836   4.091   2.274   2.667 -0.9014 -1.2128  0.7182
  104POPC   H2S13837   4.025   2.357   2.808 -0.8916 -0.5666 -0.7133
  104POPC    C313838   4.199   2.784   2.673 -0.0823  0.2305 -0.2865
  104POPC    HX13839   4.092   2.808   2.656 -1.4105 -3.1829  2.5404
  104POPC    HY13840   4.257   2.859   2.615 -1.5879  1.2555 -0.4902
  104POPC   O3113841   4.223   2.783   2.814  0.2830  0.2919 -0.3484
  104POPC   C3113842   4.348   2.790   2.861  0.2885 -0.1653 -0.2883
  104POPC   O3213843   4.447   2.815   2.794  0.4317  0.1740  0.0475
  104POPC   C3213844   4.349   2.743   3.006  0.0884 -0.4151 -0.3666
  104POPC   H2X13845   4.373   2.635   3.013  2.4678  0.0804 -0.2478
  104POPC   H2Y13846   4.244   2.756   3.041  0.1538 -0.9024  0.0071
  104POPC   C2313847   4.178   2.215   2.858 -0.1207 -0.1422 -0.0775
  104POPC   H3R13848   4.284   2.190   2.834 -0.3035 -1.5688  0.5415
  104POPC   H3S13849   4.133   2.114   2.843 -0.4733 -0.1515  1.0629
  104POPC   C2413850   4.163   2.257   3.004 -0.0646 -0.8241  0.1273
  104POPC   H4R13851   4.057   2.235   3.030  0.0737 -0.1136  1.3417
  104POPC   H4S13852   4.173   2.366   3.024 -0.8361 -0.9167  1.0587
  104POPC   C2513853   4.251   2.183   3.105  0.3411 -0.4069  0.0789
  104POPC   H5R13854   4.359   2.210   3.097  0.2499 -0.0308  0.0944
  104POPC   H5S13855   4.239   2.073   3.097  2.4592 -0.7066  0.7051
  104POPC   C2613856   4.207   2.203   3.250  0.4102  0.1154  0.0294
  104POPC   H6R13857   4.110   2.151   3.268 -0.0199  0.4062 -1.3235
  104POPC   H6S13858   4.180   2.309   3.268 -1.0645 -0.2972  0.3578
  104POPC   C2713859   4.310   2.155   3.352  0.2620 -0.0520  0.0997
  104POPC   H7R13860   4.399   2.219   3.338 -2.0622  3.2168 -0.4298
  104POPC   H7S13861   4.340   2.049   3.339 -1.5825 -0.6563  0.4908
  104POPC   C2813862   4.262   2.168   3.497  0.2182 -0.1307  0.0924
  104POPC   H8R13863   4.220   2.269   3.516  1.6973  1.3493 -4.0314
  104POPC   H8S13864   4.344   2.165   3.572  0.6588  0.3102 -0.3712
  104POPC   C2913865   4.164   2.062   3.538 -0.1036  0.1349  0.0114
  104POPC   H9113866   4.199   1.958   3.525  0.6717  0.2298  1.2949
  104POPC  C21013867   4.038   2.078   3.581 -0.0882 -0.1412  0.1559
  104POPC  H10113868   3.986   1.981   3.584  0.0512 -0.2182  0.1341
  104POPC  C21113869   3.962   2.205   3.603  0.4572  0.1219  0.5248
  104POPC  H11R13870   3.869   2.196   3.543  0.3333  4.3731 -0.0883
  104POPC  H11S13871   4.008   2.294   3.555  2.0718 -1.1817 -0.3709
  104POPC  C21213872   3.951   2.221   3.755 -0.0314  0.2764  0.4740
  104POPC  H12R13873   4.053   2.222   3.799  0.9399  1.7004 -1.7123
  104POPC  H12S13874   3.907   2.124   3.787  0.8986 -0.2185  0.2716
  104POPC  C21313875   3.876   2.347   3.800 -0.6373  0.2005 -0.3204
  104POPC  H13R13876   3.770   2.337   3.767 -0.5584 -1.2367 -0.1740
  104POPC  H13S13877   3.907   2.441   3.749 -0.7253 -0.3691 -1.4395
  104POPC  C21413878   3.886   2.360   3.952  0.2870 -0.2002 -0.3448
  104POPC  H14R13879   3.823   2.442   3.991  0.4049 -0.1912 -0.1745
  104POPC  H14S13880   3.992   2.388   3.975 -0.1499 -0.0702  1.5946
  104POPC  C21513881   3.854   2.241   4.041 -0.1651  0.1440 -0.0515
  104POPC  H15R13882   3.928   2.162   4.016  0.2638  0.1707  1.0725
  104POPC  H15S13883   3.753   2.205   4.011  1.0494 -3.3773 -0.1058
  104POPC  C21613884   3.858   2.289   4.187 -0.7835 -0.0137  0.0222
  104POPC  H16R13885   3.786   2.371   4.207 -1.3978 -0.1788 -1.4286
  104POPC  H16S13886   3.958   2.321   4.222 -1.3442  1.1249  0.5954
  104POPC  C21713887   3.822   2.177   4.284 -0.1495 -0.0172  0.2569
  104POPC  H17R13888   3.870   2.078   4.270  1.1349  0.9893 -2.8310
  104POPC  H17S13889   3.717   2.149   4.261  0.4661  0.4002 -3.2358
  104POPC  C21813890   3.835   2.222   4.430  0.6060 -0.2343  0.2607
  104POPC  H18R13891   3.763   2.303   4.455  0.6106 -0.2013  0.1698
  104POPC  H18S13892   3.933   2.274   4.437 -0.7658  2.3510  0.9389
  104POPC  H18T13893   3.837   2.139   4.504  0.0684  1.0483  1.7281
  104POPC   C3313894   4.431   2.838   3.093 -0.1397 -0.1180 -0.4739
  104POPC   H3X13895   4.394   2.943   3.086  2.3499  0.9843  1.6019
  104POPC   H3Y13896   4.534   2.836   3.052  0.2647 -1.1284  0.5574
  104POPC   C3413897   4.423   2.805   3.243  0.5011  0.3444 -0.3351
  104POPC   H4X13898   4.440   2.697   3.264 -0.7845 -0.2035 -2.0210
  104POPC   H4Y13899   4.324   2.838   3.279 -1.0980 -1.7041 -2.6802
  104POPC   C3513900   4.523   2.880   3.331 -0.2923  0.7235  0.2436
  104POPC   H5X13901   4.533   2.984   3.293  1.0231  0.4622 -0.1602
  104POPC   H5Y13902   4.622   2.839   3.302  0.2254  2.6144 -0.7730
  104POPC   C3613903   4.489   2.868   3.480 -0.0612  0.0764  0.2449
  104POPC   H6X13904   4.459   2.763   3.503 -0.3982 -0.3779 -2.0686
  104POPC   H6Y13905   4.405   2.936   3.505 -0.0758  0.3839 -0.5989
  104POPC   C3713906   4.612   2.901   3.564 -0.0320  0.3120  0.1087
  104POPC   H7X13907   4.640   3.007   3.543 -1.0644  0.6806  0.5476
  104POPC   H7Y13908   4.691   2.832   3.528  0.8219  0.8767  0.8867
  104POPC   C3813909   4.587   2.888   3.714 -0.4562 -0.0926  0.0035
  104POPC   H8X13910   4.683   2.912   3.766 -0.8707 -1.6966  1.5651
  104POPC   H8Y13911   4.580   2.777   3.723  0.8871 -0.1784  0.1500
  104POPC   C3913912   4.478   2.973   3.778 -0.2231  0.0816  0.1703
  104POPC   H9X13913   4.382   2.944   3.729  0.3523  0.1127 -0.9985
  104POPC   H9Y13914   4.513   3.074   3.750  0.5807 -0.5258 -1.0681
  104POPC  C31013915   4.460   2.962   3.930 -0.3897 -0.3293  0.1220
  104POPC  H10X13916   4.544   3.012   3.982 -0.6192 -0.5818  0.7327
  104POPC  H10Y13917   4.472   2.855   3.956 -0.9179  0.1657  2.4510
  104POPC  C31113918   4.333   3.026   3.985 -0.1830 -0.0999  0.3322
  104POPC  H11X13919   4.250   2.962   3.949  1.5556 -2.5625  0.5806
  104POPC  H11Y13920   4.328   3.129   3.943 -1.0201  0.2601  1.2841
  104POPC  C31213921   4.343   3.022   4.138  0.0762  0.1679  0.3244
  104POPC  H12X13922   4.423   3.091   4.170  0.3847  0.0371 -0.1581
  104POPC  H12Y13923   4.356   2.915   4.167 -1.5377 -0.2402 -0.3592
  104POPC  C31313924   4.214   3.055   4.214 -0.0629  0.2164  0.0695
  104POPC  H13X13925   4.137   2.976   4.205 -1.8955  1.8559  1.0256
  104POPC  H13Y13926   4.171   3.154   4.186 -1.5909 -0.8364 -1.3813
  104POPC  C31413927   4.238   3.049   4.365 -0.1344 -0.1001  0.0674
  104POPC  H14X13928   4.305   2.963   4.385  0.0089 -0.5940 -2.3079
  104POPC  H14Y13929   4.144   3.033   4.422  0.9937 -0.3906  1.8698
  104POPC  C31513930   4.319   3.166   4.420  0.2639 -0.2725 -0.1571
  104POPC  H15X13931   4.251   3.253   4.409 -1.1902 -1.1506  1.5828
  104POPC  H15Y13932   4.399   3.203   4.353  2.5622 -2.8310  1.0336
  104POPC  C31613933   4.376   3.142   4.560  0.0839 -0.8181 -0.1744
  104POPC  H16X13934   4.292   3.120   4.629 -0.3427 -0.4791 -0.5812
  104POPC  H16Y13935   4.438   3.229   4.591 -1.2162  0.2471 -0.4837
  104POPC  H16Z13936   4.453   3.062   4.560  1.4007  0.4181  0.0632
  105POPC     N13937   2.836   7.547   2.016  0.1174  0.2589 -0.1153
  105POPC   C1213938   2.975   7.497   1.986  0.1103  0.4552 -0.4825
  105POPC  H12A13942   2.984   7.474   1.881  1.7137  0.7754 -0.4301
  105POPC  H12B13943   2.991   7.405   2.041  0.6394  0.7240 -0.1897
  105POPC   C1313939   2.729   7.473   1.938  0.2507  0.7286 -0.7506
  105POPC  H13A13944   2.697   7.536   1.857 -0.8324  3.3542  1.6126
  105POPC  H13B13945   2.775   7.388   1.890  1.8221  2.3560 -2.1587
  105POPC  H13C13946   2.639   7.468   1.999  0.4267  2.4067 -0.3131
  105POPC   C1413940   2.813   7.528   2.164 -0.3434  0.8831 -0.1067
  105POPC  H14A13947   2.891   7.583   2.215  0.4049 -0.3646  0.1047
  105POPC  H14B13948   2.718   7.570   2.193 -0.1326  0.9316  0.5178
  105POPC  H14C13949   2.813   7.423   2.189  2.7513  0.3813 -1.9453
  105POPC   C1513941   2.818   7.695   1.996 -0.0568  0.1426 -0.8456
  105POPC  H15A13950   2.889   7.754   2.052  0.1607 -1.5966  0.7277
  105POPC  H15B13951   2.723   7.737   2.027 -0.4425  0.7427 -2.7572
  105POPC  H15C13952   2.831   7.721   1.892  0.5900  0.3194 -0.7209
  105POPC   C1113953   3.090   7.594   2.014  0.4214  0.0405 -0.3184
  105POPC  H11A13954   3.190   7.547   2.010  1.1442  1.3638  1.4039
  105POPC  H11B13955   3.080   7.636   2.117 -0.0187  0.9339 -0.7224
  105POPC     P13956   3.170   7.824   1.964  0.1412 -0.2073 -0.2599
  105POPC   O1313957   3.173   7.922   1.853  0.5759 -0.3633 -0.3903
  105POPC   O1413958   3.299   7.776   2.019  0.2812  0.2971 -0.1481
  105POPC   O1213959   3.083   7.699   1.917 -0.3097  0.0914 -0.2187
  105POPC   O1113960   3.079   7.875   2.085  0.3461  0.1900 -0.2734
  105POPC    C113961   3.127   0.025   2.161 -0.3774  0.5669 -0.3079
  105POPC    HA13962   3.046   0.101   2.169 -0.9213 -0.2734  2.7187
  105POPC    HB13963   3.211   0.087   2.122  0.3718  0.5390  1.2262
  105POPC    C213964   3.169   7.946   2.303 -0.7268 -0.0749 -0.3754
  105POPC    HS13965   3.261   7.885   2.287  0.4273  1.5374  0.0064
  105POPC   O2113966   3.066   7.866   2.363 -0.3654 -0.3324 -0.0985
  105POPC   C2113967   3.107   7.757   2.427  0.0465 -0.3883 -0.4538
  105POPC   O2213968   3.224   7.730   2.450 -0.1044 -0.3866  0.3175
  105POPC   C2213969   2.989   7.673   2.474 -0.3879  0.4919  0.0319
  105POPC   H2R13970   3.028   7.569   2.475 -2.9596 -0.5003  1.6163
  105POPC   H2S13971   2.908   7.682   2.400  1.4946 -1.4826 -2.3565
  105POPC    C313972   3.200   0.112   2.383 -0.1389 -0.2557 -0.2429
  105POPC    HX13973   3.114   0.179   2.359 -0.5390 -0.7682 -0.2735
  105POPC    HY13974   3.286   0.171   2.346  1.2265 -2.7856 -1.2475
  105POPC   O3113975   3.208   0.093   2.524 -0.1870  0.1187 -0.1893
  105POPC   C3113976   3.323   0.044   2.569 -0.1044 -0.0049 -0.5357
  105POPC   O3213977   3.422   0.018   2.502  0.2867  0.0005  0.0325
  105POPC   C3213978   3.313   0.024   2.720  0.2702  0.6819 -0.4163
  105POPC   H2X13979   3.214   7.943   2.745 -0.1875  1.0754 -1.4399
  105POPC   H2Y13980   3.337   0.120   2.769 -0.1984  0.0125  1.1385
  105POPC   C2313981   2.936   7.710   2.613  0.0183 -0.0175  0.3226
  105POPC   H3R13982   2.835   7.670   2.635  0.2049 -0.4897  0.3222
  105POPC   H3S13983   2.936   7.820   2.625 -0.0867  0.0792 -0.5502
  105POPC   C2413984   3.014   7.646   2.728  0.1410 -0.3830  0.0398
  105POPC   H4R13985   3.125   7.642   2.721  0.1892  0.1591  0.4352
  105POPC   H4S13986   2.987   7.539   2.718  1.0921 -0.4984 -1.3761
  105POPC   C2513987   2.971   7.713   2.859  0.2057 -0.0403 -0.1145
  105POPC   H5R13988   2.866   7.698   2.892  0.1142 -1.0286 -0.8244
  105POPC   H5S13989   3.004   7.819   2.849  0.8388 -0.1261  0.9611
  105POPC   C2613990   3.039   7.658   2.985  0.0046  0.0535  0.0348
  105POPC   H6R13991   3.149   7.657   2.968 -0.0817  1.1468 -0.6451
  105POPC   H6S13992   2.998   7.555   2.984  2.1088 -0.8361  2.0227
  105POPC   C2713993   2.997   7.736   3.110  0.1518  0.3481 -0.0990
  105POPC   H7R13994   2.887   7.749   3.098  0.2912  1.5242 -0.1915
  105POPC   H7S13995   3.030   7.842   3.106 -0.6355  0.5226 -3.5498
  105POPC   C2813996   3.038   7.669   3.241  0.1260  0.1491 -0.1930
  105POPC   H8R13997   3.142   7.633   3.252  1.3296  3.3480 -0.5873
  105POPC   H8S13998   2.964   7.586   3.245  2.6157 -2.1460 -0.4887
  105POPC   C2913999   3.006   7.755   3.360  0.0839  0.1751 -0.2244
  105POPC   H9114000   3.068   7.846   3.367  1.2051 -0.4670 -1.4540
  105POPC  C21014001   2.933   7.739   3.471 -0.1404 -0.2695 -0.4349
  105POPC  H10114002   2.942   7.825   3.538  0.4348 -0.3836 -0.3642
  105POPC  C21114003   2.842   7.624   3.507 -0.0557 -0.0396  0.5121
  105POPC  H11R14004   2.868   7.530   3.455  0.0391 -0.0217  0.5254
  105POPC  H11S14005   2.741   7.666   3.488  1.3198  3.1329 -0.1854
  105POPC  C21214006   2.861   7.588   3.655 -0.2753 -0.3332  0.4667
  105POPC  H12R14007   2.816   7.670   3.715 -1.2619  0.1259 -0.8701
  105POPC  H12S14008   2.967   7.589   3.687 -0.5727 -1.1078  1.5014
  105POPC  C21314009   2.804   7.446   3.671  0.1771 -0.5566  0.1135
  105POPC  H13R14010   2.874   7.373   3.625 -0.2560 -1.7084  1.2530
  105POPC  H13S14011   2.709   7.426   3.618  0.0558 -0.2220  0.2006
  105POPC  C21414012   2.793   7.414   3.820  0.7542 -0.5811  0.1544
  105POPC  H14R14013   2.766   7.507   3.875 -1.3299 -1.1917  0.2212
  105POPC  H14S14014   2.894   7.387   3.857 -0.1166 -1.9784  1.5413
  105POPC  C21514015   2.700   7.297   3.852  0.4373 -0.3661  0.0205
  105POPC  H15R14016   2.737   7.237   3.937  2.3549  1.2696  0.3729
  105POPC  H15S14017   2.702   7.222   3.770 -0.0272 -4.0214  3.2135
  105POPC  C21614018   2.552   7.328   3.877  0.3215 -1.0599  0.2032
  105POPC  H16R14019   2.498   7.232   3.862 -0.3955 -0.6424  0.1040
  105POPC  H16S14020   2.512   7.404   3.807  0.7287 -0.8709  0.1715
  105POPC  C21714021   2.520   7.385   4.015 -0.1900  0.2482 -0.4496
  105POPC  H17R14022   2.558   7.489   4.024 -0.5031  0.5679 -2.5732
  105POPC  H17S14023   2.577   7.327   4.091  1.5959  0.1081 -1.8818
  105POPC  C21814024   2.370   7.377   4.044 -0.1201 -0.0916 -0.1751
  105POPC  H18R14025   2.330   7.274   4.057  1.5342 -0.6587  0.5597
  105POPC  H18S14026   2.311   7.431   3.966 -2.2209 -0.5512  1.0493
  105POPC  H18T14027   2.351   7.431   4.139 -0.4423 -0.2452 -0.1522
  105POPC   C3314028   3.415   7.881   2.764  0.2164  0.7063 -0.1381
  105POPC   H3X14029   3.521   7.898   2.736  0.4489  0.0860  0.3382
  105POPC   H3Y14030   3.389   7.790   2.707  1.1109  0.6287 -0.4335
  105POPC   C3414031   3.413   7.848   2.914  0.3742 -0.5522 -0.4107
  105POPC   H4X14032   3.439   7.741   2.931 -2.1472 -1.0944  0.2620
  105POPC   H4Y14033   3.312   7.857   2.960  0.2574 -1.0578 -0.5684
  105POPC   C3514034   3.508   7.941   2.990 -0.2381 -0.3316  0.0861
  105POPC   H5X14035   3.473   0.084   2.980  0.1805 -0.2236 -0.6899
  105POPC   H5Y14036   3.606   7.910   2.949 -0.1171 -1.3313  1.0940
  105POPC   C3614037   3.507   7.910   3.140  0.7128  0.4183  0.2530
  105POPC   H6X14038   3.576   0.019   3.188 -0.7734  2.2203 -0.1729
  105POPC   H6Y14039   3.550   7.807   3.145  0.0851  0.2159  1.7375
  105POPC   C3714040   3.370   7.922   3.206  0.3410 -0.5383 -0.3365
  105POPC   H7X14041   3.328   7.819   3.209 -0.5338 -0.2950 -2.6223
  105POPC   H7Y14042   3.310   0.033   3.147  2.5150  1.0678 -0.6558
  105POPC   C3814043   3.378   0.018   3.347  0.3441  0.0426 -0.5603
  105POPC   H8X14044   3.274   0.019   3.386  0.3112  0.4754 -0.6451
  105POPC   H8Y14045   3.414   0.123   3.338  0.7505 -0.0428  0.0984
  105POPC   C3914046   3.463   7.897   3.442 -0.3810  0.0158  0.1113
  105POPC   H9X14047   3.561   7.873   3.394 -0.1286  1.1691  0.0357
  105POPC   H9Y14048   3.408   7.801   3.450 -2.4976  1.0441 -1.7219
  105POPC  C31014049   3.474   7.959   3.581  0.0182 -0.1934  0.1752
  105POPC  H10X14050   3.506   0.102   3.569 -0.3464 -0.3092 -2.3906
  105POPC  H10Y14051   3.546   7.904   3.645 -2.2265 -2.3914  0.9122
  105POPC  C31114052   3.341   7.960   3.657 -0.1252 -0.0847 -0.0758
  105POPC  H11X14053   3.299   7.857   3.651  0.4750 -0.3054 -0.5942
  105POPC  H11Y14054   3.278   0.071   3.603  1.0833  0.8425 -0.3154
  105POPC  C31214055   3.355   0.049   3.801  0.0755 -0.0727 -0.0849
  105POPC  H12X14056   3.369   7.916   3.857 -1.5275  0.0472  0.5977
  105POPC  H12Y14057   3.258   0.091   3.833 -0.2761 -0.7944 -0.1850
  105POPC  C31314058   3.467   0.151   3.821  0.0486 -0.0151 -0.2256
  105POPC  H13X14059   3.451   0.244   3.762  1.3903 -0.5708 -1.5045
  105POPC  H13Y14060   3.563   0.102   3.795 -0.1479  0.1677 -1.3347
  105POPC  C31414061   3.463   0.190   3.969 -0.5996  0.3006 -0.3224
  105POPC  H14X14062   3.480   0.101   4.033 -0.6456  1.4089  1.2422
  105POPC  H14Y14063   3.359   0.217   3.996  0.5139  1.3753  3.1245
  105POPC  C31514064   3.574   0.290   4.002  0.2084 -0.7071  0.0386
  105POPC  H15X14065   3.556   0.379   3.937  1.1720 -0.9360 -0.5522
  105POPC  H15Y14066   3.676   0.248   3.989  0.4105 -0.7326  1.6654
  105POPC  C31614067   3.573   0.329   4.149  0.8691  0.4020 -0.2419
  105POPC  H16X14068   3.476   0.374   4.181  0.8099  0.5412 -0.6226
  105POPC  H16Y14069   3.647   0.409   4.170  1.2308 -0.2649  1.1251
  105POPC  H16Z14070   3.590   0.242   4.216 -1.2540  0.5890  0.5793
  106POPC     N14071   3.562   2.685   2.279  0.1972  0.1646 -0.1407
  106POPC   C1214072   3.479   2.679   2.405  0.7168  0.6968  0.2241
  106POPC  H12A14076   3.384   2.728   2.390  1.0191  0.4420 -2.7170
  106POPC  H12B14077   3.536   2.738   2.476  0.6337  1.2128 -0.1336
  106POPC   C1314073   3.578   2.825   2.225  0.5561 -0.1036 -0.7421
  106POPC  H13A14078   3.639   2.832   2.137  1.7845  1.5683  0.2089
  106POPC  H13B14079   3.479   2.863   2.205  0.1104 -2.0997 -2.4991
  106POPC  H13C14080   3.615   2.896   2.298  0.2785  0.6293 -1.3123
  106POPC   C1414074   3.699   2.627   2.302  0.3294  0.5977  0.1552
  106POPC  H14A14081   3.772   2.656   2.228 -0.6925 -0.6262 -1.3494
  106POPC  H14B14082   3.739   2.652   2.400 -0.2559 -1.5394  0.9657
  106POPC  H14C14083   3.687   2.520   2.307  3.1177  0.2981  2.0000
  106POPC   C1514075   3.500   2.609   2.164  0.5683 -0.3441 -0.0110
  106POPC  H15A14084   3.474   2.507   2.186 -1.7049  0.4083  1.0071
  106POPC  H15B14085   3.568   2.611   2.080  1.5208  0.0562  0.7586
  106POPC  H15C14086   3.407   2.653   2.130  0.0434 -1.0951  0.4402
  106POPC   C1114087   3.454   2.540   2.462  0.5783  0.2973 -0.7991
  106POPC  H11A14088   3.404   2.560   2.560  0.7307  3.9406 -1.3943
  106POPC  H11B14089   3.556   2.501   2.485 -0.0546 -0.0909  1.4546
  106POPC     P14090   3.235   2.431   2.402 -0.2266 -0.1086  0.5221
  106POPC   O1314091   3.165   2.355   2.296 -0.2670  0.3687  0.2030
  106POPC   O1414092   3.172   2.561   2.434 -0.3883 -0.0406 -0.0644
  106POPC   O1214093   3.391   2.451   2.370 -0.3960  0.2594 -0.1046
  106POPC   O1114094   3.235   2.342   2.534  0.7395 -0.4169  0.3181
  106POPC    C114095   3.238   2.199   2.537 -0.7096 -0.4547 -0.0277
  106POPC    HA14096   3.328   2.176   2.477 -0.0145 -0.3902  0.9795
  106POPC    HB14097   3.148   2.150   2.493 -1.6849 -0.6977  2.1883
  106POPC    C214098   3.241   2.151   2.683 -0.2848 -0.4404 -0.0313
  106POPC    HS14099   3.226   2.041   2.677 -2.8829 -0.2575  2.2835
  106POPC   O2114100   3.145   2.226   2.757  0.2165  0.1817 -0.0079
  106POPC   C2114101   3.025   2.168   2.750  0.3198 -0.0719  0.3219
  106POPC   O2214102   2.999   2.070   2.681  0.2013 -0.0774  0.3755
  106POPC   C2214103   2.935   2.246   2.843  0.0442 -0.4109  0.3415
  106POPC   H2R14104   2.833   2.206   2.823 -0.5091  1.6306 -1.0364
  106POPC   H2S14105   2.928   2.357   2.831  1.1703 -0.4876 -1.1307
  106POPC    C314106   3.383   2.170   2.740 -0.5276  0.1279  0.3827
  106POPC    HX14107   3.412   2.276   2.722 -0.0518  0.2040  1.5657
  106POPC    HY14108   3.455   2.107   2.684 -0.4129  2.1456 -1.8774
  106POPC   O3114109   3.375   2.155   2.882 -0.0617 -0.0555  0.3903
  106POPC   C3114110   3.390   2.033   2.933 -0.3623 -0.0244  0.5542
  106POPC   O3214111   3.420   1.933   2.869  0.6947  0.4325  0.3255
  106POPC   C3214112   3.391   2.050   3.084 -0.4060  0.7552  0.4693
  106POPC   H2X14113   3.296   2.099   3.116 -0.3944  0.1795  1.4110
  106POPC   H2Y14114   3.464   2.122   3.127  0.3150 -0.1865  0.8397
  106POPC   C2314115   2.959   2.205   2.989  0.8379  0.6658  0.5255
  106POPC   H3R14116   3.053   2.257   3.015  0.2693  0.2095  3.6161
  106POPC   H3S14117   2.956   2.094   3.000  0.9143  0.6876  0.7698
  106POPC   C2414118   2.854   2.255   3.088  0.2039  0.2208  0.0861
  106POPC   H4R14119   2.759   2.202   3.068  0.2445  0.6645 -1.3646
  106POPC   H4S14120   2.836   2.364   3.075  0.1578  0.0147 -1.7121
  106POPC   C2514121   2.897   2.233   3.233  0.3078 -0.3324 -0.0280
  106POPC   H5R14122   2.997   2.279   3.242  0.1392  0.6463 -2.6957
  106POPC   H5S14123   2.911   2.124   3.242  0.2444 -0.3944 -0.6335
  106POPC   C2614124   2.797   2.293   3.332  0.5118 -0.0132 -0.0125
  106POPC   H6R14125   2.710   2.225   3.345  0.6302 -0.2180 -0.3008
  106POPC   H6S14126   2.761   2.387   3.286  1.7177  0.1835 -0.5524
  106POPC   C2714127   2.858   2.337   3.465 -0.2950 -0.0021  0.3544
  106POPC   H7R14128   2.781   2.378   3.535 -0.0793 -0.3932  0.8288
  106POPC   H7S14129   2.936   2.412   3.442  1.6193 -1.5343  1.6593
  106POPC   C2814130   2.934   2.222   3.531 -0.3895 -0.0636  0.3563
  106POPC   H8R14131   2.996   2.163   3.460 -2.0388 -0.9109 -0.3928
  106POPC   H8S14132   2.872   2.151   3.589  0.1147 -0.1142  0.8419
  106POPC   C2914133   3.039   2.274   3.625  0.2811 -0.0532 -0.3944
  106POPC   H9114134   3.095   2.364   3.595  0.7390 -0.4669 -0.7993
  106POPC  C21014135   3.054   2.242   3.754 -0.3052  0.6061 -0.1611
  106POPC  H10114136   3.125   2.299   3.815 -0.2971  0.8893 -0.4337
  106POPC  C21114137   2.989   2.123   3.819 -0.2517  0.5058 -0.2922
  106POPC  H11R14138   2.982   2.048   3.738 -0.4529  0.2641 -0.0507
  106POPC  H11S14139   2.881   2.129   3.842 -0.4089  1.6431 -1.3089
  106POPC  C21214140   3.076   2.069   3.933 -0.6038 -0.4091 -0.4483
  106POPC  H12R14141   3.085   2.154   4.005  1.1519 -0.7149 -0.2812
  106POPC  H12S14142   3.179   2.063   3.892 -1.0483  2.2695 -2.1149
  106POPC  C21314143   3.011   1.952   4.006 -0.2064 -0.2760  0.1306
  106POPC  H13R14144   3.091   1.909   4.069 -0.0328  2.4629  1.8488
  106POPC  H13S14145   2.990   1.867   3.937 -0.7904  1.2657 -1.6426
  106POPC  C21414146   2.898   2.001   4.097 -0.3450 -0.0173 -0.1762
  106POPC  H14R14147   2.820   2.067   4.054 -1.2174 -1.0513 -0.1863
  106POPC  H14S14148   2.934   2.056   4.186  4.4583  0.6085 -2.3517
  106POPC  C21514149   2.830   1.874   4.149 -0.2183 -0.0271 -0.0351
  106POPC  H15R14150   2.909   1.809   4.191  0.2785 -1.4046 -3.0307
  106POPC  H15S14151   2.781   1.814   4.069 -0.6936  0.5890 -0.2115
  106POPC  C21614152   2.720   1.897   4.254 -0.5012  0.3563 -0.4098
  106POPC  H16R14153   2.617   1.899   4.214 -0.7300  1.3036  0.2097
  106POPC  H16S14154   2.740   1.994   4.303  2.5343 -0.6405  0.4677
  106POPC  C21714155   2.726   1.793   4.366 -0.3799  0.0925 -0.6602
  106POPC  H17R14156   2.828   1.785   4.410  0.2008  0.4359 -1.9119
  106POPC  H17S14157   2.699   1.699   4.313 -0.3008 -0.5624  0.4341
  106POPC  C21814158   2.628   1.808   4.482  0.0455 -0.3834 -0.2335
  106POPC  H18R14159   2.637   1.714   4.541  0.8126 -1.2496 -1.6995
  106POPC  H18S14160   2.523   1.836   4.457 -0.0064  2.4138  2.7530
  106POPC  H18T14161   2.653   1.897   4.542  1.0015  0.7548 -2.2512
  106POPC   C3314162   3.381   1.910   3.144  0.6325  0.5883  0.2582
  106POPC   H3X14163   3.460   1.840   3.107 -0.6592  0.0121 -1.5104
  106POPC   H3Y14164   3.285   1.870   3.105 -0.2145  3.3866 -0.6508
  106POPC   C3414165   3.365   1.914   3.296 -0.2484 -0.1840  0.1904
  106POPC   H4X14166   3.332   1.811   3.322 -0.6054 -0.6111 -1.8265
  106POPC   H4Y14167   3.303   1.996   3.337  1.7115  0.4832  1.9418
  106POPC   C3514168   3.503   1.933   3.359 -0.2083  0.6626 -0.1526
  106POPC   H5X14169   3.560   2.025   3.332 -0.4372  1.7368  2.8256
  106POPC   H5Y14170   3.565   1.844   3.335  0.2647  0.6662  1.0235
  106POPC   C3614171   3.479   1.943   3.509 -0.1114 -0.4123 -0.0584
  106POPC   H6X14172   3.551   1.877   3.562 -1.6185 -2.2830 -0.3016
  106POPC   H6Y14173   3.387   1.889   3.540 -0.4631  0.8955  1.2360
  106POPC   C3714174   3.491   2.083   3.571 -0.4934 -0.3466 -0.1364
  106POPC   H7X14175   3.413   2.146   3.521  0.3299  0.7337 -0.0662
  106POPC   H7Y14176   3.591   2.129   3.556 -0.4931  0.4265  2.1193
  106POPC   C3814177   3.466   2.067   3.721 -0.0764  0.0563 -0.0238
  106POPC   H8X14178   3.565   2.031   3.756  1.0320 -0.0773 -3.1069
  106POPC   H8Y14179   3.380   2.001   3.744  1.5135 -0.8803  3.5960
  106POPC   C3914180   3.445   2.206   3.780 -0.8816 -0.1369  0.1494
  106POPC   H9X14181   3.353   2.255   3.741  1.6566  3.3104 -1.7860
  106POPC   H9Y14182   3.534   2.266   3.751 -1.8129  0.6242 -1.1963
  106POPC  C31014183   3.454   2.188   3.932  0.0056 -0.4440  0.0631
  106POPC  H10X14184   3.560   2.172   3.962  0.2321  0.2016 -0.3779
  106POPC  H10Y14185   3.388   2.101   3.952  0.0147 -0.3961  0.2962
  106POPC  C31114186   3.392   2.314   3.992  0.3403 -0.1099 -0.2860
  106POPC  H11X14187   3.328   2.277   4.075  0.1702 -1.9392 -1.1998
  106POPC  H11Y14188   3.338   2.378   3.919  1.3728 -1.2886 -2.1076
  106POPC  C31214189   3.497   2.393   4.070  0.0004  0.5074 -0.4532
  106POPC  H12X14190   3.571   2.456   4.016  0.3081 -0.1435 -0.7883
  106POPC  H12Y14191   3.546   2.314   4.131 -1.4475  0.4303  0.6394
  106POPC  C31314192   3.430   2.485   4.173  0.2382 -0.0062  0.1627
  106POPC  H13X14193   3.509   2.522   4.242 -0.2072 -1.3646  1.4139
  106POPC  H13Y14194   3.339   2.449   4.226 -2.0797  0.1465 -3.5422
  106POPC  C31414195   3.379   2.611   4.103  0.0385 -0.1732  0.0045
  106POPC  H14X14196   3.280   2.585   4.060 -0.3667  1.8953 -0.3892
  106POPC  H14Y14197   3.455   2.646   4.030 -0.5815  2.2149  0.4551
  106POPC  C31514198   3.360   2.738   4.187  0.8658  0.1600 -0.3019
  106POPC  H15X14199   3.344   2.825   4.120 -2.3988 -0.0694  0.0804
  106POPC  H15Y14200   3.467   2.750   4.215  1.3857 -1.9471 -1.2772
  106POPC  C31614201   3.252   2.740   4.295  1.0842  0.4310 -0.0878
  106POPC  H16X14202   3.268   2.657   4.368 -0.9565 -1.2430 -1.4539
  106POPC  H16Y14203   3.149   2.721   4.258  0.6196 -1.6813  2.0740
  106POPC  H16Z14204   3.241   2.835   4.351  0.0192  1.5466 -2.1685
  107POPC     N14205   6.952   6.028   1.988 -0.0259 -0.0958  0.1441
  107POPC   C1214206   6.866   6.008   2.111 -0.1193 -0.0872  0.0808
  107POPC  H12A14210   6.778   5.950   2.086  0.1142  0.0903 -1.1795
  107POPC  H12B14211   6.826   6.106   2.129 -0.4301 -0.5147  1.7380
  107POPC   C1314207   7.081   6.097   2.026 -0.4157  0.3461  0.6639
  107POPC  H13A14212   7.062   6.193   2.072  0.4399  1.3998 -1.1235
  107POPC  H13B14213   7.131   6.028   2.092  2.0130  1.8915  0.4986
  107POPC  H13C14214   7.147   6.109   1.942  2.2329 -0.4046  2.5614
  107POPC   C1414208   6.971   5.895   1.919 -0.4606 -0.3141  0.4395
  107POPC  H14A14215   7.051   5.848   1.974 -0.0059  1.7814  1.6281
  107POPC  H14B14216   6.878   5.841   1.923  0.5821 -2.1904  0.0104
  107POPC  H14C14217   7.000   5.914   1.816  0.7094 -1.5838  0.5270
  107POPC   C1514209   6.878   6.110   1.885 -0.1489  0.0403  0.3397
  107POPC  H15A14218   6.840   6.202   1.926 -2.2240 -0.2394 -0.8829
  107POPC  H15B14219   6.796   6.055   1.842 -1.0255  0.3831  1.5660
  107POPC  H15C14220   6.944   6.129   1.801 -1.5512 -1.3876 -1.1265
  107POPC   C1114221   6.929   5.948   2.237  0.2074  0.1843  0.0461
  107POPC  H11A14222   6.854   5.923   2.314  0.1484 -0.6818 -0.2876
  107POPC  H11B14223   6.990   6.037   2.265  0.3121 -0.2875  1.3316
  107POPC     P14224   7.077   5.753   2.307 -0.2099  0.1698  0.3336
  107POPC   O1314225   7.207   5.824   2.318 -0.2462  0.3117 -0.1446
  107POPC   O1414226   7.086   5.609   2.278 -0.4769  0.2040  0.0873
  107POPC   O1214227   6.998   5.831   2.192 -0.1896 -0.0899  0.1443
  107POPC   O1114228   6.996   5.779   2.443 -1.2804 -0.4008 -0.1887
  107POPC    C114229   7.020   5.694   2.556 -0.0471 -0.0649 -0.1859
  107POPC    HA14230   7.064   5.752   2.640  1.6125  2.2098 -2.5592
  107POPC    HB14231   7.083   5.606   2.532  1.2718  0.9272 -0.3892
  107POPC    C214232   6.881   5.643   2.599  0.0622  0.0071  0.2604
  107POPC    HS14233   6.839   5.581   2.517 -1.5899 -0.0158  1.1105
  107POPC   O2114234   6.794   5.755   2.614  0.2061  0.1905 -0.2655
  107POPC   C2114235   6.666   5.724   2.595  0.2438  0.1337 -0.4242
  107POPC   O2214236   6.626   5.609   2.583 -0.1755  0.1490  0.7400
  107POPC   C2214237   6.568   5.840   2.587  0.3981  0.2724 -0.2868
  107POPC   H2R14238   6.467   5.796   2.598  0.1128  0.4527 -2.0296
  107POPC   H2S14239   6.570   5.878   2.483 -1.3954 -0.7350 -0.7073
  107POPC    C314240   6.881   5.552   2.723  0.6517 -0.6592 -0.2208
  107POPC    HX14241   6.932   5.458   2.694  1.6741  0.6079 -2.6969
  107POPC    HY14242   6.776   5.527   2.750  0.5376  1.2908  1.3020
  107POPC   O3114243   6.948   5.612   2.834  0.2477 -0.2937 -0.1703
  107POPC   C3114244   6.945   5.533   2.941 -0.0053 -0.0299  0.0171
  107POPC   O3214245   6.900   5.420   2.945 -0.1688  0.0428  0.2489
  107POPC   C3214246   7.012   5.603   3.059  0.0417  0.3145 -0.2127
  107POPC   H2X14247   6.976   5.547   3.148  0.6595 -1.0743 -0.8159
  107POPC   H2Y14248   6.984   5.709   3.072 -0.2015  0.3642 -1.0885
  107POPC   C2314249   6.600   5.941   2.697 -0.4527  0.6548 -0.3825
  107POPC   H3R14250   6.552   6.040   2.680 -0.6518  0.2413 -2.2676
  107POPC   H3S14251   6.709   5.964   2.696 -0.3051 -0.0482 -0.1977
  107POPC   C2414252   6.552   5.907   2.838  0.8646 -0.1547 -0.1153
  107POPC   H4R14253   6.598   5.811   2.870 -3.1575 -1.3189  2.6127
  107POPC   H4S14254   6.442   5.892   2.842  0.6130  1.9370  3.2077
  107POPC   C2514255   6.583   6.024   2.931  0.1350 -0.0254 -0.0286
  107POPC   H5R14256   6.562   6.118   2.875 -1.6216 -0.5460 -0.2697
  107POPC   H5S14257   6.692   6.023   2.954  0.2383 -0.6939 -0.5664
  107POPC   C2614258   6.507   6.015   3.064 -0.3772 -0.1505 -0.3310
  107POPC   H6R14259   6.483   5.907   3.076 -2.3798  0.2398 -0.6421
  107POPC   H6S14260   6.409   6.068   3.061  0.1580  0.8154 -1.1761
  107POPC   C2714261   6.583   6.049   3.192 -0.4557 -0.3634 -0.2283
  107POPC   H7R14262   6.515   6.045   3.281 -2.5406  1.7752 -1.6446
  107POPC   H7S14263   6.625   6.150   3.175 -1.3228 -0.2424 -1.7480
  107POPC   C2814264   6.696   5.953   3.227 -0.2672  0.0203  0.2204
  107POPC   H8R14265   6.748   5.967   3.325  0.0863 -0.1447  0.0562
  107POPC   H8S14266   6.784   5.961   3.159  0.3168 -0.1001  0.9478
  107POPC   C2914267   6.655   5.810   3.207  0.7648 -0.2808  0.2258
  107POPC   H9114268   6.632   5.788   3.102  2.4370  0.6686 -0.3588
  107POPC  C21014269   6.627   5.721   3.303  0.1328 -0.0843  0.2245
  107POPC  H10114270   6.602   5.618   3.271  1.2163 -0.5324  0.8110
  107POPC  C21114271   6.636   5.742   3.451  0.0661  0.1236  0.1987
  107POPC  H11R14272   6.544   5.797   3.478  1.6303  3.3356 -0.7667
  107POPC  H11S14273   6.723   5.806   3.480  0.6666 -0.3199 -0.5873
  107POPC  C21214274   6.636   5.608   3.526 -0.7136  0.0842  0.1307
  107POPC  H12R14275   6.725   5.547   3.497 -1.5111 -1.5654  1.1004
  107POPC  H12S14276   6.547   5.549   3.495  1.1635 -1.8813 -1.7427
  107POPC  C21314277   6.610   5.626   3.675 -0.1347  0.3087  0.2087
  107POPC  H13R14278   6.621   5.526   3.723  0.1036  0.3174  0.1694
  107POPC  H13S14279   6.503   5.650   3.692 -0.3242  0.2252 -0.8220
  107POPC  C21414280   6.707   5.720   3.746  0.9967 -0.7382  0.0664
  107POPC  H14R14281   6.699   5.822   3.702  0.6892 -1.3855 -1.4026
  107POPC  H14S14282   6.812   5.687   3.730  1.4589  0.5040  0.4826
  107POPC  C21514283   6.684   5.711   3.897 -0.1367 -0.2970 -0.0760
  107POPC  H15R14284   6.664   5.603   3.918  2.5310 -0.6680  0.7957
  107POPC  H15S14285   6.594   5.771   3.924  1.2899  0.4457  3.2283
  107POPC  C21614286   6.800   5.768   3.979 -0.0243 -0.5186 -0.0790
  107POPC  H16R14287   6.821   5.864   3.927  0.2416 -0.4111  0.2277
  107POPC  H16S14288   6.888   5.701   3.979  3.3987  3.7605  0.9648
  107POPC  C21714289   6.748   5.799   4.119 -0.4075  0.0791 -0.3516
  107POPC  H17R14290   6.675   5.724   4.156 -0.6311 -0.3145 -1.5945
  107POPC  H17S14291   6.681   5.887   4.112 -0.9521 -0.2169  0.9557
  107POPC  C21814292   6.849   5.834   4.228 -0.7599 -0.2709  0.0895
  107POPC  H18R14293   6.798   5.864   4.322 -0.5971 -4.7258  1.7580
  107POPC  H18S14294   6.923   5.904   4.184 -0.1520 -1.2178 -0.4217
  107POPC  H18T14295   6.908   5.743   4.252  0.2713  0.0789 -1.0605
  107POPC   C3314296   7.164   5.596   3.044  0.0336  0.9691 -0.5949
  107POPC   H3X14297   7.193   5.670   2.966 -1.0466 -0.1848 -2.0980
  107POPC   H3Y14298   7.186   5.493   3.010 -1.7118  0.0604  0.9487
  107POPC   C3414299   7.247   5.614   3.172 -0.2237  0.0141 -0.2930
  107POPC   H4X14300   7.246   5.516   3.224  0.2089  0.5933  0.8192
  107POPC   H4Y14301   7.193   5.690   3.233  1.4678  0.0049  1.2369
  107POPC   C3514302   7.392   5.638   3.131 -0.0459 -0.2954  0.1494
  107POPC   H5X14303   7.381   5.736   3.078 -1.1684  0.9839  2.6758
  107POPC   H5Y14304   7.429   5.558   3.064 -1.3779 -1.3920  0.7058
  107POPC   C3614305   7.497   5.637   3.242 -0.1220 -0.0936  0.2220
  107POPC   H6X14306   7.578   5.701   3.200 -0.1323 -1.6754 -2.2619
  107POPC   H6Y14307   7.536   5.536   3.264 -2.4326 -1.4703 -1.7723
  107POPC   C3714308   7.452   5.699   3.375  0.1734 -0.5590  0.5394
  107POPC   H7X14309   7.370   5.643   3.424  0.7851 -0.6740  1.4338
  107POPC   H7Y14310   7.415   5.800   3.347  1.2623 -0.3900 -0.3267
  107POPC   C3814311   7.568   5.712   3.473  0.3938  0.2195  0.1823
  107POPC   H8X14312   7.650   5.745   3.406  0.4355 -0.4680 -0.1164
  107POPC   H8Y14313   7.590   5.611   3.515  1.2288 -0.3501 -1.5788
  107POPC   C3914314   7.542   5.821   3.577 -0.2718  0.0796  0.1596
  107POPC   H9X14315   7.482   5.774   3.659 -2.1838  0.2329 -1.1110
  107POPC   H9Y14316   7.483   5.903   3.529  0.0978 -0.0609 -0.5379
  107POPC  C31014317   7.669   5.875   3.642 -0.2380  0.1905 -0.0010
  107POPC  H10X14318   7.651   5.970   3.696  0.6254 -0.0065  0.6457
  107POPC  H10Y14319   7.730   5.914   3.557 -0.7881  1.4861  0.1901
  107POPC  C31114320   7.745   5.774   3.728 -0.1562  0.1670 -0.1000
  107POPC  H11X14321   7.757   5.677   3.675 -0.8502  0.6129 -1.1018
  107POPC  H11Y14322   7.706   5.752   3.830 -0.1845 -0.8811 -0.3369
  107POPC  C31214323   7.884   5.833   3.755  0.0041 -0.2382 -0.0425
  107POPC  H12X14324   7.870   5.941   3.777  0.7871  0.0282 -0.8328
  107POPC  H12Y14325   7.942   5.837   3.660  1.9595  2.3652  1.2144
  107POPC  C31314326   7.947   5.762   3.875 -0.3649  0.1361  0.3766
  107POPC  H13X14327   0.004   5.656   3.847  0.6502  0.6557 -0.9954
  107POPC  H13Y14328   7.884   5.767   3.966 -2.3020  1.1011 -0.9810
  107POPC  C31414329   0.125   5.821   3.894 -0.3022  0.1000  0.3343
  107POPC  H14X14330   0.191   5.838   3.806 -0.2270  0.3134  0.4307
  107POPC  H14Y14331   0.172   5.751   3.965  0.7658 -0.2109 -0.6570
  107POPC  C31514332   0.132   5.954   3.969  0.1436  0.4003 -0.2361
  107POPC  H15X14333   0.068   5.941   4.059 -1.5035 -2.0872 -1.7106
  107POPC  H15Y14334   0.092   6.035   3.903 -1.8895 -1.8112 -1.8011
  107POPC  C31614335   0.277   5.987   4.001  0.2430 -0.2720  0.0064
  107POPC  H16X14336   0.344   5.903   4.031  2.0901  1.0622 -0.2872
  107POPC  H16Y14337   0.290   6.059   4.085  0.0034 -1.1321  0.7850
  107POPC  H16Z14338   0.324   6.035   3.912 -1.1144 -2.0221 -1.6730
  108POPC     N14339   2.695   5.201   1.753 -0.7204 -0.0740  0.3441
  108POPC   C1214340   2.724   5.312   1.851  0.3942 -0.1090  0.0552
  108POPC  H12A14344   2.723   5.403   1.794 -3.0799 -0.2697 -0.2262
  108POPC  H12B14345   2.820   5.303   1.900  1.3073  2.6676 -1.0990
  108POPC   C1314341   2.802   5.200   1.647 -0.9304 -0.1627  0.1317
  108POPC  H13A14346   2.822   5.300   1.612 -0.7547 -1.2835 -3.0604
  108POPC  H13B14347   2.892   5.148   1.676 -0.3563  0.9312  0.3269
  108POPC  H13C14348   2.768   5.145   1.561 -1.3983  1.6500 -0.8600
  108POPC   C1414342   2.693   5.064   1.818  0.0969 -0.4523 -0.4293
  108POPC  H14A14349   2.630   4.995   1.762 -3.8231  2.7595 -0.2732
  108POPC  H14B14350   2.795   5.030   1.829  0.1435  0.0099  0.5453
  108POPC  H14C14351   2.643   5.082   1.912 -1.9750  1.2530 -1.8049
  108POPC   C1514343   2.563   5.227   1.685 -0.6636  0.2913  0.3752
  108POPC  H15A14352   2.544   5.176   1.592 -1.3605  1.2775 -0.0432
  108POPC  H15B14353   2.568   5.328   1.647  0.2568 -0.2854 -1.0516
  108POPC  H15C14354   2.478   5.222   1.751 -0.5359 -2.7877  0.3713
  108POPC   C1114355   2.615   5.344   1.954  0.3487 -0.2101  0.0389
  108POPC  H11A14356   2.527   5.379   1.896 -0.8945 -3.0631  0.0955
  108POPC  H11B14357   2.647   5.430   2.016 -0.8686 -0.0366  0.4255
  108POPC     P14358   2.524   5.242   2.177  0.1484  0.0592  0.2051
  108POPC   O1314359   2.533   5.110   2.244 -0.0939  0.0032  0.1278
  108POPC   O1414360   2.388   5.299   2.166  0.0119 -0.3707 -0.3653
  108POPC   O1214361   2.588   5.226   2.031  0.1787 -0.0459  0.2295
  108POPC   O1114362   2.619   5.341   2.258 -0.0640 -0.1346  0.6909
  108POPC    C114363   2.736   5.284   2.318  0.2163 -0.3439 -0.0465
  108POPC    HA14364   2.821   5.356   2.316 -0.0725  0.0482  1.3680
  108POPC    HB14365   2.755   5.187   2.268  1.8343 -0.2907  0.4449
  108POPC    C214366   2.716   5.261   2.469 -0.4991  0.2371 -0.0467
  108POPC    HS14367   2.804   5.203   2.504 -1.6176  0.4358  3.2559
  108POPC   O2114368   2.588   5.204   2.498 -0.2224 -0.6476 -0.5299
  108POPC   C2114369   2.587   5.103   2.584 -0.2473  0.0840  0.3407
  108POPC   O2214370   2.685   5.052   2.637 -0.2279  0.1237  0.3427
  108POPC   C2214371   2.444   5.065   2.619 -0.1786 -0.1084  0.4165
  108POPC   H2R14372   2.427   4.963   2.579  1.2029  0.6269 -2.1363
  108POPC   H2S14373   2.370   5.138   2.581 -1.0616 -1.6259 -0.8729
  108POPC    C314374   2.717   5.399   2.537 -0.5391  0.0296  0.3782
  108POPC    HX14375   2.644   5.468   2.491  0.9052  1.1989 -0.1999
  108POPC    HY14376   2.814   5.446   2.508  1.1863 -1.6386  3.1242
  108POPC   O3114377   2.708   5.394   2.680  0.0874 -0.2810  0.4093
  108POPC   C3114378   2.817   5.397   2.758  0.3819 -0.4616  0.0079
  108POPC   O3214379   2.931   5.397   2.715  0.5151 -0.1462  0.3704
  108POPC   C3214380   2.767   5.374   2.899  0.2694 -0.1527  0.0185
  108POPC   H2X14381   2.748   5.267   2.924  0.0485 -0.1486 -0.1284
  108POPC   H2Y14382   2.665   5.418   2.908  0.3612  0.0532  0.0580
  108POPC   C2314383   2.424   5.060   2.771  0.1828  0.3404  0.4799
  108POPC   H3R14384   2.319   5.080   2.800 -0.8918 -0.3549 -2.7466
  108POPC   H3S14385   2.490   5.140   2.811  0.3669  0.9124 -0.9560
  108POPC   C2414386   2.467   4.928   2.836 -0.0886  0.0757  0.1187
  108POPC   H4R14387   2.576   4.921   2.816 -0.1261  0.5451 -0.2599
  108POPC   H4S14388   2.416   4.840   2.791  1.5349 -1.1416  0.6039
  108POPC   C2514389   2.445   4.933   2.987  0.1117 -0.0409  0.1530
  108POPC   H5R14390   2.426   4.828   3.017 -1.8484  0.5786  1.1732
  108POPC   H5S14391   2.366   5.005   3.020  1.1837  1.3646 -0.2760
  108POPC   C2614392   2.574   4.973   3.059  0.1819  0.6022 -0.3199
  108POPC   H6R14393   2.604   5.077   3.037 -3.3365  2.0803  1.4254
  108POPC   H6S14394   2.655   4.905   3.027  0.2424  0.3643  0.3261
  108POPC   C2714395   2.558   4.974   3.211 -0.2186  0.1414 -0.3556
  108POPC   H7R14396   2.547   4.867   3.239 -0.3896 -0.0918 -1.3054
  108POPC   H7S14397   2.465   5.029   3.239 -0.1862  0.5953 -1.1190
  108POPC   C2814398   2.686   5.026   3.278 -0.2288  0.0971 -0.3007
  108POPC   H8R14399   2.766   4.983   3.214 -2.1891 -0.9494 -2.1560
  108POPC   H8S14400   2.698   4.976   3.376 -2.5671 -0.4315 -0.2353
  108POPC   C2914401   2.706   5.169   3.316 -0.0230 -0.0293  0.0694
  108POPC   H9114402   2.801   5.207   3.275 -1.1073  1.8696 -0.7807
  108POPC  C21014403   2.643   5.251   3.401  0.1795 -0.0569  0.2434
  108POPC  H10114404   2.682   5.350   3.431  1.1633  0.0840 -1.4662
  108POPC  C21114405   2.511   5.224   3.467  0.0527  0.2709  0.1213
  108POPC  H11R14406   2.466   5.133   3.423  2.2193 -0.6544 -0.2027
  108POPC  H11S14407   2.437   5.306   3.451  0.2719  0.7091  1.3068
  108POPC  C21214408   2.520   5.199   3.617 -0.3955  0.1941  0.1356
  108POPC  H12R14409   2.424   5.187   3.672 -0.3684 -1.2751 -0.1215
  108POPC  H12S14410   2.560   5.293   3.659  0.1433 -0.2537  0.6268
  108POPC  C21314411   2.614   5.083   3.650 -0.5746  0.0332  0.0857
  108POPC  H13R14412   2.710   5.103   3.599 -1.6558  2.3495 -1.0705
  108POPC  H13S14413   2.570   4.989   3.610 -3.2282  0.7896  1.0706
  108POPC  C21414414   2.633   5.071   3.802 -0.3788 -0.8000 -0.0040
  108POPC  H14R14415   2.541   5.035   3.853 -0.9722  0.0065 -0.4953
  108POPC  H14S14416   2.657   5.174   3.835  0.7729 -1.2851  0.7093
  108POPC  C21514417   2.754   4.984   3.838 -0.2240 -0.4565  0.3086
  108POPC  H15R14418   2.851   5.030   3.811  0.6656 -2.6282 -0.2940
  108POPC  H15S14419   2.744   4.884   3.790  0.4433  1.0682 -3.1408
  108POPC  C21614420   2.752   4.960   3.989  0.0204 -0.8530  0.2490
  108POPC  H16R14421   2.664   4.895   4.011 -0.3220  0.4438  2.8011
  108POPC  H16S14422   2.741   5.062   4.031  2.3151  0.1739 -1.5019
  108POPC  C21714423   2.874   4.886   4.045  0.2937 -0.3708  0.2865
  108POPC  H17R14424   2.881   4.903   4.155 -1.4032  0.9628  0.2043
  108POPC  H17S14425   2.969   4.923   4.001 -0.3743 -0.2723 -1.1017
  108POPC  C21814426   2.869   4.735   4.026 -0.3206 -0.3298  0.1105
  108POPC  H18R14427   2.814   4.709   3.933  1.2078 -0.5244 -0.7505
  108POPC  H18S14428   2.812   4.687   4.109 -0.8248  0.2573  0.1082
  108POPC  H18T14429   2.968   4.686   4.035  0.3733  0.3445 -3.2884
  108POPC   C3314430   2.862   5.447   2.995  0.3556  0.0848 -0.2476
  108POPC   H3X14431   2.939   5.509   2.945  0.3366 -0.1174 -0.5286
  108POPC   H3Y14432   2.903   5.363   3.054 -1.3640 -2.6849 -2.8063
  108POPC   C3414433   2.779   5.542   3.081  0.4846 -0.1641  0.1561
  108POPC   H4X14434   2.717   5.474   3.142  0.9371  0.4932  1.3619
  108POPC   H4Y14435   2.711   5.616   3.033 -0.7916  0.0616  2.2721
  108POPC   C3514436   2.872   5.609   3.182  0.3686 -0.3196  0.3655
  108POPC   H5X14437   2.939   5.685   3.136 -0.3651  1.2863  1.8616
  108POPC   H5Y14438   2.931   5.527   3.228 -1.2042 -0.9026  1.3968
  108POPC   C3614439   2.781   5.686   3.278 -0.0239  0.0878 -0.3302
  108POPC   H6X14440   2.708   5.621   3.331  1.8399 -2.1090 -0.3722
  108POPC   H6Y14441   2.720   5.751   3.211 -0.0253  0.7646  0.3269
  108POPC   C3714442   2.852   5.784   3.371  0.0197 -0.1918 -0.0670
  108POPC   H7X14443   2.918   5.730   3.442 -0.2966 -0.0625  0.3268
  108POPC   H7Y14444   2.778   5.850   3.421 -1.1985 -0.8823 -0.9229
  108POPC   C3814445   2.941   5.878   3.291  0.0277 -0.3828 -0.2828
  108POPC   H8X14446   2.870   5.911   3.213 -0.8454 -0.2276  0.5697
  108POPC   H8Y14447   3.026   5.829   3.240  1.1260  0.2126  0.9324
  108POPC   C3914448   2.996   5.996   3.372 -0.1718 -0.4515 -0.0445
  108POPC   H9X14449   3.096   5.971   3.413 -0.4064  0.6425  1.2188
  108POPC   H9Y14450   2.922   6.024   3.450 -0.6924 -0.1214 -0.6504
  108POPC  C31014451   3.024   6.125   3.294 -0.6230 -0.0343  0.4855
  108POPC  H10X14452   2.929   6.155   3.244 -1.8813  0.2048  2.9185
  108POPC  H10Y14453   3.107   6.107   3.223 -0.8047  2.7980 -0.5095
  108POPC  C31114454   3.066   6.249   3.374 -0.3908  0.0528  0.2262
  108POPC  H11X14455   2.985   6.285   3.441 -2.7154 -3.2168 -0.7257
  108POPC  H11Y14456   3.087   6.329   3.299 -0.4774  0.1659  0.3219
  108POPC  C31214457   3.184   6.230   3.469 -0.1700 -0.2570 -0.1097
  108POPC  H12X14458   3.264   6.163   3.430 -0.9429  0.1071 -2.3794
  108POPC  H12Y14459   3.149   6.195   3.569  0.1756 -0.3460 -0.0166
  108POPC  C31314460   3.251   6.365   3.495 -0.4198  0.0110 -0.8576
  108POPC  H13X14461   3.276   6.422   3.403  0.9188  1.2837  0.2885
  108POPC  H13Y14462   3.355   6.351   3.533  0.2985  1.5995 -2.1888
  108POPC  C31414463   3.174   6.453   3.593  0.7419 -0.4322  0.4802
  108POPC  H14X14464   3.159   6.393   3.685 -1.1054 -2.1136 -0.8632
  108POPC  H14Y14465   3.070   6.465   3.555  0.2993 -1.3378  1.4118
  108POPC  C31514466   3.224   6.591   3.634  0.3151 -0.1567  0.0842
  108POPC  H15X14467   3.132   6.648   3.660 -0.3289 -0.9790 -0.3896
  108POPC  H15Y14468   3.267   6.637   3.543 -2.8729  0.0459 -1.4048
  108POPC  C31614469   3.325   6.596   3.748  0.2242  0.1756  0.1506
  108POPC  H16X14470   3.422   6.556   3.710 -0.2091 -0.4640 -0.2917
  108POPC  H16Y14471   3.282   6.529   3.825 -0.0706 -1.4546 -1.4243
  108POPC  H16Z14472   3.349   6.697   3.788  0.8830  1.1637 -2.6273
  109POPC     N14473   5.825   6.451   1.924 -0.0555 -0.7042  0.4196
  109POPC   C1214474   5.893   6.523   2.038 -0.2657  0.0247  0.0876
  109POPC  H12A14478   5.821   6.555   2.111 -1.4410 -1.2386 -0.4927
  109POPC  H12B14479   5.936   6.615   2.002 -2.1300  1.9413  2.6280
  109POPC   C1314475   5.745   6.333   1.975 -0.1522 -0.6103  0.4833
  109POPC  H13A14480   5.659   6.361   2.034 -0.9333 -0.8017 -0.5473
  109POPC  H13B14481   5.708   6.265   1.900  1.6878 -0.0077 -1.0095
  109POPC  H13C14482   5.821   6.284   2.033  1.4230  0.5583 -0.5702
  109POPC   C1414476   5.731   6.547   1.855  0.1842 -0.5134  0.3590
  109POPC  H14A14483   5.792   6.626   1.815  0.4367 -0.2635  1.2354
  109POPC  H14B14484   5.678   6.499   1.774  0.9119 -1.1816  0.2686
  109POPC  H14C14485   5.663   6.596   1.922 -0.9373 -1.9901  0.3296
  109POPC   C1514477   5.925   6.402   1.822  0.4931  0.0120  0.6115
  109POPC  H15A14486   5.992   6.336   1.874 -0.3577 -1.0413  0.3901
  109POPC  H15B14487   5.978   6.487   1.782  2.1887 -0.6536  1.3990
  109POPC  H15C14488   5.873   6.357   1.739 -1.1547 -0.8002  2.0544
  109POPC   C1114489   6.001   6.447   2.115 -0.0980  0.1697 -0.0030
  109POPC  H11A14490   5.951   6.358   2.160  0.5437 -0.0152  0.3496
  109POPC  H11B14491   6.034   6.517   2.195  0.5093  2.5540 -2.2970
  109POPC     P14492   6.203   6.289   2.081  0.0960  0.0013  0.0520
  109POPC   O1314493   6.311   6.269   1.982  0.1375 -0.0993  0.1179
  109POPC   O1414494   6.116   6.174   2.111 -0.4379  0.3766 -0.0518
  109POPC   O1214495   6.113   6.412   2.034  0.1497  0.1541  0.3413
  109POPC   O1114496   6.268   6.336   2.220 -0.1334  0.1633  0.1037
  109POPC    C114497   6.352   6.452   2.228 -0.2719  0.2403  0.4727
  109POPC    HA14498   6.332   6.512   2.319 -0.7874  1.7985 -0.6529
  109POPC    HB14499   6.338   6.520   2.142 -0.4712 -1.4782 -0.8855
  109POPC    C214500   6.503   6.423   2.219 -0.3340  0.1696 -0.3717
  109POPC    HS14501   6.513   6.356   2.131  3.9863  0.9277 -0.5883
  109POPC   O2114502   6.538   6.337   2.328  0.0124  0.1039 -0.5333
  109POPC   C2114503   6.658   6.282   2.317  0.3271  0.6282  0.2796
  109POPC   O2214504   6.733   6.297   2.222  0.3148 -0.5087  0.0825
  109POPC   C2214505   6.685   6.219   2.453  0.0068  0.4167  0.2446
  109POPC   H2R14506   6.757   6.137   2.432  0.7606  1.4437 -1.1618
  109POPC   H2S14507   6.587   6.183   2.491  0.0340 -1.0945 -1.0829
  109POPC    C314508   6.592   6.545   2.188  0.1465 -0.1714 -0.3441
  109POPC    HX14509   6.533   6.611   2.120 -1.0401 -0.7916  0.0646
  109POPC    HY14510   6.677   6.529   2.119  0.6207 -2.2286  0.6669
  109POPC   O3114511   6.655   6.607   2.301 -0.3994 -0.5952  0.1972
  109POPC   C3114512   6.577   6.701   2.355  0.4099 -0.0901  0.4970
  109POPC   O3214513   6.460   6.715   2.322  0.4068 -0.0410  0.5311
  109POPC   C3214514   6.657   6.773   2.462  0.5200  0.1562  0.2503
  109POPC   H2X14515   6.632   6.880   2.450  0.0018  0.3053  2.5312
  109POPC   H2Y14516   6.766   6.750   2.452  0.1860 -0.6485 -1.9698
  109POPC   C2314517   6.742   6.324   2.549  0.4657  0.3925 -0.0030
  109POPC   H3R14518   6.699   6.304   2.649 -1.5116 -1.4075 -1.1677
  109POPC   H3S14519   6.714   6.428   2.525  1.0522  0.2796 -1.2228
  109POPC   C2414520   6.892   6.299   2.567  0.4150 -0.2231 -0.4081
  109POPC   H4R14521   6.933   6.321   2.466  1.7167  0.3446  0.2302
  109POPC   H4S14522   6.920   6.193   2.586  0.2312 -0.4486 -1.3844
  109POPC   C2514523   6.953   6.389   2.674  0.0668  0.0400 -0.4329
  109POPC   H5R14524   6.879   6.397   2.757  0.1906 -0.8307 -0.2349
  109POPC   H5S14525   6.961   6.493   2.635 -1.3691  0.9246  1.4945
  109POPC   C2614526   7.080   6.326   2.730  0.1237 -0.4250 -1.0895
  109POPC   H6R14527   7.131   6.391   2.805  1.8254 -1.2536 -1.4959
  109POPC   H6S14528   7.159   6.302   2.656  0.6437  1.4159 -1.1696
  109POPC   C2714529   7.061   6.194   2.804  0.4040 -0.1759 -0.5666
  109POPC   H7R14530   7.027   6.122   2.727  0.7062  0.5966 -1.4289
  109POPC   H7S14531   6.980   6.204   2.880  1.1704 -0.2053  0.2645
  109POPC   C2814532   7.186   6.150   2.881 -0.2214  0.2473  0.7053
  109POPC   H8R14533   7.224   6.241   2.932 -1.5859  1.7002 -0.7896
  109POPC   H8S14534   7.259   6.123   2.803  1.2784  3.4100  0.9545
  109POPC   C2914535   7.157   6.040   2.979 -0.3421 -0.1640  0.2098
  109POPC   H9114536   7.107   5.951   2.937 -0.9668 -0.7696  2.1614
  109POPC  C21014537   7.192   6.038   3.108  0.3520  0.3050  0.0298
  109POPC  H10114538   7.165   5.954   3.175 -1.7080  0.5223 -0.5142
  109POPC  C21114539   7.264   6.150   3.177  0.6328  0.3304 -0.3025
  109POPC  H11R14540   7.210   6.242   3.206 -1.9189 -2.0220  2.8008
  109POPC  H11S14541   7.340   6.182   3.103 -0.4854  1.3501 -1.0309
  109POPC  C21214542   7.308   6.117   3.320  0.0887  0.3892 -0.1217
  109POPC  H12R14543   7.379   6.196   3.351  1.3080 -0.4361 -0.7891
  109POPC  H12S14544   7.364   6.022   3.330 -1.0318 -0.4102 -1.2641
  109POPC  C21314545   7.199   6.104   3.426  0.5436 -0.3954  0.2551
  109POPC  H13R14546   7.148   6.202   3.442  2.7745  0.9720 -0.8337
  109POPC  H13S14547   7.244   6.082   3.525  0.8550 -0.5296  0.0813
  109POPC  C21414548   7.098   5.992   3.404 -0.0624  0.1861  0.0369
  109POPC  H14R14549   7.141   5.895   3.370 -1.9147 -0.3206 -0.9362
  109POPC  H14S14550   7.028   6.036   3.330  2.3816  3.8008 -0.1829
  109POPC  C21514551   7.009   5.968   3.526  0.7608 -0.0456  0.5934
  109POPC  H15R14552   6.934   5.888   3.506  1.7376 -0.7927 -0.1253
  109POPC  H15S14553   6.949   6.058   3.550  0.9417  0.7169 -1.7642
  109POPC  C21614554   7.080   5.936   3.658 -0.1420 -0.2035  1.0496
  109POPC  H16R14555   7.007   5.919   3.739  0.3163 -0.7346  1.3487
  109POPC  H16S14556   7.130   6.029   3.695  1.0176  0.1058 -1.2001
  109POPC  C21714557   7.179   5.819   3.652 -0.0071 -0.0105 -0.6751
  109POPC  H17R14558   7.219   5.812   3.755 -1.6617  0.3672  0.0100
  109POPC  H17S14559   7.260   5.849   3.582 -0.5972  1.2168 -0.8535
  109POPC  C21814560   7.127   5.683   3.607 -0.0367 -0.3279  0.3249
  109POPC  H18R14561   7.069   5.634   3.688 -1.6991 -1.5407 -1.5375
  109POPC  H18S14562   7.213   5.621   3.573  0.0222  0.1082 -0.3140
  109POPC  H18T14563   7.040   5.683   3.538 -0.1739 -1.0461  0.4931
  109POPC   C3314564   6.611   6.733   2.602 -0.1774  0.1020  0.0067
  109POPC   H3X14565   6.626   6.624   2.611 -0.8510  0.0529  0.6315
  109POPC   H3Y14566   6.502   6.747   2.617 -0.3736 -0.8463 -0.5111
  109POPC   C3414567   6.683   6.815   2.710 -0.5480  0.0804  0.2714
  109POPC   H4X14568   6.673   6.920   2.677  0.8290 -0.3869 -1.7004
  109POPC   H4Y14569   6.786   6.773   2.709 -0.3581  0.4876 -2.4900
  109POPC   C3514570   6.622   6.811   2.850 -0.6218 -0.2450  0.2322
  109POPC   H5X14571   6.512   6.812   2.837 -0.8243  0.2770  1.8578
  109POPC   H5Y14572   6.648   6.899   2.914 -1.2991 -0.2576  0.5319
  109POPC   C3614573   6.671   6.681   2.913  0.4041 -0.0002 -0.0541
  109POPC   H6X14574   6.782   6.685   2.911  0.3590  0.5051 -2.3982
  109POPC   H6Y14575   6.645   6.595   2.847  0.5605 -0.6786  0.7600
  109POPC   C3714576   6.620   6.672   3.057  0.1952 -0.4123 -0.1519
  109POPC   H7X14577   6.511   6.694   3.050  0.1031 -0.6159  0.6147
  109POPC   H7Y14578   6.681   6.753   3.102  2.1518 -0.9186 -1.8271
  109POPC   C3814579   6.652   6.543   3.131 -0.8825 -0.1064  0.8789
  109POPC   H8X14580   6.619   6.465   3.059 -2.3559  1.2861  0.0304
  109POPC   H8Y14581   6.582   6.534   3.216 -1.4645 -1.5076  0.2707
  109POPC   C3914582   6.801   6.533   3.164 -0.8027  0.7739  0.7937
  109POPC   H9X14583   6.839   6.627   3.209  2.3384  0.6481 -1.3494
  109POPC   H9Y14584   6.847   6.516   3.064  1.6133  1.0710  1.7995
  109POPC  C31014585   6.832   6.409   3.249  0.4229  0.6015  0.1068
  109POPC  H10X14586   6.939   6.384   3.265  0.6494  1.0886 -0.6113
  109POPC  H10Y14587   6.777   6.328   3.198  1.3069  0.7692 -1.1472
  109POPC  C31114588   6.785   6.418   3.394 -0.2957  0.1401 -0.0963
  109POPC  H11X14589   6.825   6.335   3.455  0.0707  0.9174  0.7380
  109POPC  H11Y14590   6.674   6.417   3.392 -0.2841  0.6512 -1.4652
  109POPC  C31214591   6.829   6.542   3.472  0.1775  0.2422 -0.5262
  109POPC  H12X14592   6.781   6.625   3.415 -0.3797 -1.5165 -2.6900
  109POPC  H12Y14593   6.938   6.559   3.457  0.1219  1.0840  0.0125
  109POPC  C31314594   6.776   6.540   3.615  0.4804 -0.6486 -0.4268
  109POPC  H13X14595   6.832   6.465   3.676  0.2639 -0.2822  0.2228
  109POPC  H13Y14596   6.672   6.501   3.616 -1.2194  3.5427 -2.7002
  109POPC  C31414597   6.759   6.680   3.673  0.3386 -0.8438  0.0080
  109POPC  H14X14598   6.666   6.716   3.623  0.4810 -1.8872 -1.0245
  109POPC  H14Y14599   6.842   6.744   3.636 -0.0814  0.3869  1.1238
  109POPC  C31514600   6.751   6.669   3.825 -0.3071  0.5217  0.0888
  109POPC  H15X14601   6.777   6.770   3.863  1.2835  0.0956  0.1827
  109POPC  H15Y14602   6.830   6.595   3.852 -0.9923 -0.7102 -1.2518
  109POPC  C31614603   6.622   6.624   3.893 -0.1563  0.2488  0.1999
  109POPC  H16X14604   6.646   6.615   4.001  0.5009  0.6497  0.0899
  109POPC  H16Y14605   6.583   6.524   3.864 -0.4297  0.2493  0.5581
  109POPC  H16Z14606   6.535   6.694   3.883  1.4067  2.3249  0.7932
  110POPC     N14607   3.288   7.229   1.723 -0.5956  0.1632 -0.2057
  110POPC   C1214608   3.281   7.298   1.857 -0.8020  0.0091 -0.1379
  110POPC  H12A14612   3.187   7.269   1.901 -0.2293 -1.0814  0.3955
  110POPC  H12B14613   3.287   7.405   1.846  1.5716  0.1902  2.4360
  110POPC   C1314609   3.170   7.256   1.633 -0.5482 -0.3824 -0.4327
  110POPC  H13A14614   3.165   7.363   1.621  2.2445 -0.1117  0.4144
  110POPC  H13B14615   3.189   7.206   1.538  1.8897 -0.5214  0.0927
  110POPC  H13C14616   3.081   7.230   1.687 -0.4175  0.6615  0.2814
  110POPC   C1414610   3.415   7.275   1.655 -0.2075  0.2027  0.5420
  110POPC  H14A14617   3.500   7.236   1.709 -0.3910  0.8396  1.2996
  110POPC  H14B14618   3.422   7.244   1.552 -1.0789  0.5266  0.3774
  110POPC  H14C14619   3.424   7.383   1.648 -0.6559  0.1500 -1.0522
  110POPC   C1514611   3.292   7.079   1.742 -0.2946  0.1703 -0.2011
  110POPC  H15A14620   3.217   7.054   1.816  0.6795  1.7933  1.3899
  110POPC  H15B14621   3.387   7.042   1.779 -1.0050 -1.1155  0.3624
  110POPC  H15C14622   3.266   7.040   1.645 -0.2344  1.1798 -0.6215
  110POPC   C1114623   3.390   7.275   1.961 -0.4866 -0.3757 -0.5516
  110POPC  H11A14624   3.390   7.170   1.998 -0.1992 -0.0422  0.4061
  110POPC  H11B14625   3.364   7.340   2.047 -0.6959 -0.6184 -0.4302
  110POPC     P14626   3.616   7.399   1.987 -0.2411  0.2277 -0.5483
  110POPC   O1314627   3.568   7.539   1.996 -0.2142  0.1851  0.2548
  110POPC   O1414628   3.756   7.375   1.947 -0.4424 -0.6025 -0.7762
  110POPC   O1214629   3.514   7.311   1.900 -0.2682 -0.2453 -0.0381
  110POPC   O1114630   3.598   7.338   2.134  0.4533  0.1051 -0.5128
  110POPC    C114631   3.637   7.202   2.152  0.3127  0.1071 -0.1907
  110POPC    HA14632   3.702   7.167   2.068  1.3417  2.1052 -0.2450
  110POPC    HB14633   3.547   7.137   2.162 -0.2304  0.9563  0.4092
  110POPC    C214634   3.729   7.192   2.275 -0.4784  0.2624  0.4159
  110POPC    HS14635   3.752   7.090   2.313  1.7100  0.7980  0.5837
  110POPC   O2114636   3.670   7.270   2.379  0.1687  0.7168  0.4453
  110POPC   C2114637   3.565   7.212   2.438  0.0480  0.5383  0.0605
  110POPC   O2214638   3.519   7.102   2.413 -0.2906  0.5617  0.5829
  110POPC   C2214639   3.506   7.303   2.545 -0.3860  0.1828  0.1235
  110POPC   H2R14640   3.431   7.371   2.499 -1.3500 -0.3990  0.8148
  110POPC   H2S14641   3.589   7.369   2.578 -0.3584  0.5453 -0.6605
  110POPC    C314642   3.870   7.246   2.244 -0.3900 -0.1493  0.0991
  110POPC    HX14643   3.864   7.345   2.194 -0.7062 -1.0310 -1.6456
  110POPC    HY14644   3.914   7.186   2.161 -0.7554 -0.4723  0.1332
  110POPC   O3114645   3.960   7.257   2.355 -0.7376 -0.2005  0.3879
  110POPC   C3114646   4.052   7.353   2.350 -0.3470 -0.6054 -0.2908
  110POPC   O3214647   4.087   7.415   2.251 -0.1410 -0.3059 -0.0332
  110POPC   C3214648   4.111   7.366   2.490  0.0274  0.0149 -0.5030
  110POPC   H2X14649   4.168   7.275   2.516 -0.1260  0.0425 -0.0541
  110POPC   H2Y14650   4.032   7.382   2.567  0.0865  0.7880 -0.6010
  110POPC   C2314651   3.443   7.221   2.657 -0.2027  0.2520  0.2777
  110POPC   H3R14652   3.528   7.158   2.694  0.4923  1.1269  0.1792
  110POPC   H3S14653   3.368   7.151   2.616 -0.1689 -0.1254  0.8433
  110POPC   C2414654   3.377   7.305   2.767 -0.2294  0.3133  0.2145
  110POPC   H4R14655   3.296   7.372   2.732 -3.0631 -1.6883  2.7071
  110POPC   H4S14656   3.460   7.364   2.812  0.3221 -0.5179  0.3053
  110POPC   C2514657   3.335   7.215   2.883 -0.5468  0.1118 -0.0543
  110POPC   H5R14658   3.415   7.143   2.912  0.1439  0.1857 -1.7065
  110POPC   H5S14659   3.266   7.144   2.832  2.6156 -1.1686 -2.7404
  110POPC   C2614660   3.272   7.288   3.002 -0.5228  0.4029 -0.2180
  110POPC   H6R14661   3.206   7.213   3.052 -0.2199 -0.0893 -0.5535
  110POPC   H6S14662   3.203   7.368   2.969  0.2229  0.0851 -2.6231
  110POPC   C2714663   3.380   7.341   3.097 -0.2954 -0.4381  0.0064
  110POPC   H7R14664   3.421   7.435   3.053  1.3522 -1.7037 -1.1861
  110POPC   H7S14665   3.466   7.271   3.101  0.7918  0.8365 -0.3103
  110POPC   C2814666   3.340   7.367   3.242 -0.3608 -0.0476 -0.0787
  110POPC   H8R14667   3.316   7.268   3.288 -3.7195  0.2246 -1.1489
  110POPC   H8S14668   3.248   7.428   3.252  1.1127  2.1528  0.2614
  110POPC   C2914669   3.437   7.442   3.328 -0.2793 -0.3904  0.1313
  110POPC   H9114670   3.475   7.533   3.279 -1.3950  0.5601  0.9873
  110POPC  C21014671   3.468   7.419   3.457  0.5902  0.6657  0.1287
  110POPC  H10114672   3.536   7.497   3.492 -0.8842  1.5135  1.1440
  110POPC  C21114673   3.411   7.319   3.554  1.0087  0.2508 -0.0498
  110POPC  H11R14674   3.492   7.255   3.594 -1.4057 -3.5657 -0.9399
  110POPC  H11S14675   3.350   7.259   3.483  0.3383  1.8751 -0.8814
  110POPC  C21214676   3.316   7.381   3.657  0.6878  0.6232 -0.5622
  110POPC  H12R14677   3.240   7.306   3.688  1.4951  0.0978  0.1857
  110POPC  H12S14678   3.272   7.463   3.597  2.3943  2.7784  1.0615
  110POPC  C21314679   3.383   7.428   3.787 -0.2181  0.8746 -0.1865
  110POPC  H13R14680   3.459   7.506   3.768  0.8106 -0.1268 -0.2541
  110POPC  H13S14681   3.442   7.340   3.820  1.0871  1.7749 -0.1362
  110POPC  C21414682   3.294   7.467   3.906 -0.3256  0.2898 -0.0730
  110POPC  H14R14683   3.346   7.482   4.003  0.3722  0.0092 -0.3938
  110POPC  H14S14684   3.219   7.388   3.928 -2.8792  3.1434  1.7102
  110POPC  C21514685   3.218   7.598   3.887  0.0914  0.4869 -0.3996
  110POPC  H15R14686   3.175   7.595   3.784  1.6237  3.8626 -1.1954
  110POPC  H15S14687   3.285   7.686   3.898  0.7946 -0.0911 -0.0174
  110POPC  C21614688   3.105   7.615   3.989  0.3736  0.4007 -0.0743
  110POPC  H16R14689   3.013   7.556   3.967  1.9518 -1.7439 -1.1429
  110POPC  H16S14690   3.083   7.723   3.977 -2.4894 -0.3059 -1.5575
  110POPC  C21714691   3.142   7.592   4.136 -0.2723  0.1411  0.0502
  110POPC  H17R14692   3.236   7.645   4.162  0.2269 -0.8190  0.1896
  110POPC  H17S14693   3.153   7.482   4.144  1.3503  0.3039  0.1548
  110POPC  C21814694   3.038   7.641   4.237  0.2342 -0.4175  0.8383
  110POPC  H18R14695   3.072   7.596   4.334  0.9637  2.2801  1.8734
  110POPC  H18S14696   2.935   7.605   4.219  0.0031  0.3203  0.6807
  110POPC  H18T14697   3.045   7.750   4.255 -1.8073  0.1483 -1.6823
  110POPC   C3314698   4.199   7.491   2.497  0.2182 -0.1693  0.3764
  110POPC   H3X14699   4.141   7.574   2.451  1.8866  0.4707 -0.6064
  110POPC   H3Y14700   4.289   7.469   2.436 -0.4422  1.6307 -1.2755
  110POPC   C3414701   4.235   7.539   2.638 -0.2207  0.1377  0.3857
  110POPC   H4X14702   4.305   7.466   2.686  0.1806  0.0264 -0.3610
  110POPC   H4Y14703   4.137   7.550   2.688 -0.4458 -2.0426  0.4912
  110POPC   C3514704   4.315   7.669   2.643 -0.0024  0.0023  0.4325
  110POPC   H5X14705   4.266   7.740   2.572  1.9428  0.1336 -0.8271
  110POPC   H5Y14706   4.413   7.654   2.591 -0.8005 -0.5396 -0.9380
  110POPC   C3614707   4.334   7.742   2.776  0.2501  0.8444 -0.0583
  110POPC   H6X14708   4.232   7.785   2.785 -1.4252 -2.3424 -2.8622
  110POPC   H6Y14709   4.403   7.829   2.769  0.9506  0.2552 -0.6106
  110POPC   C3714710   4.354   7.658   2.903 -0.1755  0.6434 -0.1223
  110POPC   H7X14711   4.460   7.626   2.913 -1.0580 -2.5685 -0.6427
  110POPC   H7Y14712   4.278   7.577   2.907 -0.1489  0.6620  0.9226
  110POPC   C3814713   4.313   7.738   3.027  0.1949  0.0684  0.3737
  110POPC   H8X14714   4.306   7.675   3.117 -0.0576 -1.4654 -0.7004
  110POPC   H8Y14715   4.217   7.790   3.005  0.5514  1.4171  1.8821
  110POPC   C3914716   4.415   7.844   3.071 -0.0491  0.3997  0.1474
  110POPC   H9X14717   4.430   7.914   2.986  0.6354 -1.8291 -1.6174
  110POPC   H9Y14718   4.511   7.792   3.092 -0.5795  0.1062  1.9066
  110POPC  C31014719   4.376   7.904   3.206 -0.7348  0.9234 -0.2836
  110POPC  H10X14720   4.361   7.822   3.280 -0.4709  0.8814 -0.2783
  110POPC  H10Y14721   4.278   7.957   3.195 -0.3579  1.5035 -0.8811
  110POPC  C31114722   4.481   0.035   3.265 -0.1789 -0.0686  0.3648
  110POPC  H11X14723   4.500   0.111   3.186  0.8937 -1.3062 -0.5906
  110POPC  H11Y14724   4.569   7.931   3.281 -0.9047 -0.8510  1.3698
  110POPC  C31214725   4.423   0.097   3.392 -0.0146  0.3297  0.2475
  110POPC  H12X14726   4.385   0.018   3.460  0.1299  1.1107  1.2460
  110POPC  H12Y14727   4.338   0.152   3.347 -1.5430 -2.8180 -0.8761
  110POPC  C31314728   4.530   0.182   3.460 -0.4243  0.5539  0.6175
  110POPC  H13X14729   4.569   0.250   3.380 -0.9346  1.2946  0.9954
  110POPC  H13Y14730   4.606   0.107   3.490  0.2226  1.2462  0.7488
  110POPC  C31414731   4.485   0.252   3.589 -0.3714 -0.4668  1.1921
  110POPC  H14X14732   4.573   0.299   3.638 -0.3334  0.5077  0.2096
  110POPC  H14Y14733   4.445   0.176   3.660 -1.7646 -0.0972  0.7971
  110POPC  C31514734   4.381   0.363   3.582  0.3608  0.1453 -0.2848
  110POPC  H15X14735   4.340   0.370   3.685 -1.4728  1.1921 -1.0630
  110POPC  H15Y14736   4.291   0.336   3.523  0.6054 -0.1612 -0.5186
  110POPC  C31614737   4.428   0.502   3.539  0.0929  0.3770  0.1566
  110POPC  H16X14738   4.379   0.591   3.583  0.4226  1.2689 -1.2327
  110POPC  H16Y14739   4.400   0.519   3.432 -1.1095 -0.4820  0.3212
  110POPC  H16Z14740   4.539   0.507   3.545  0.1291 -0.3199  0.1236
  111POPC     N14741   4.231   4.162   2.029  0.1744  0.1525  0.4010
  111POPC   C1214742   4.197   4.150   2.175  0.2981 -0.4558  0.3806
  111POPC  H12A14746   4.096   4.112   2.179  0.6387 -1.5218 -0.8497
  111POPC  H12B14747   4.191   4.252   2.211  0.7689  0.3271 -1.7021
  111POPC   C1314743   4.122   4.239   1.958  0.4590  0.2656  0.0884
  111POPC  H13A14748   4.108   4.328   2.018 -1.0021 -1.2544  2.0358
  111POPC  H13B14749   4.169   4.271   1.865  1.3900 -0.9702  0.1237
  111POPC  H13C14750   4.041   4.174   1.931  0.4438  1.2032 -2.2710
  111POPC   C1414744   4.351   4.253   2.017  0.6390 -0.4558  0.4493
  111POPC  H14A14751   4.372   4.273   1.913 -2.2748 -1.0721 -0.3025
  111POPC  H14B14752   4.331   4.353   2.052 -1.9686 -0.3099 -1.3097
  111POPC  H14C14753   4.437   4.205   2.063 -0.0215 -1.6181  0.5162
  111POPC   C1514745   4.259   4.026   1.969  0.5984  0.5556 -0.3297
  111POPC  H15A14754   4.336   3.969   2.019 -1.4455 -1.7538  0.3418
  111POPC  H15B14755   4.279   4.030   1.863 -1.9960  1.0866 -0.8510
  111POPC  H15C14756   4.167   3.969   1.976 -0.0684  1.4839 -1.4037
  111POPC   C1114757   4.293   4.073   2.266  0.6070 -0.5561 -0.0269
  111POPC  H11A14758   4.297   3.964   2.244 -0.5933 -1.0729  2.1331
  111POPC  H11B14759   4.251   4.077   2.369  0.3483  2.8492 -0.2118
  111POPC     P14760   4.523   4.064   2.378  0.3203 -0.2984  0.2902
  111POPC   O1314761   4.660   4.116   2.356 -0.0407  0.4442 -0.2332
  111POPC   O1414762   4.497   3.923   2.342  0.4458 -0.2725  0.0975
  111POPC   O1214763   4.422   4.133   2.274  0.3119  0.0126  0.5058
  111POPC   O1114764   4.455   4.086   2.521 -0.1971  0.3588 -0.0516
  111POPC    C114765   4.421   4.221   2.554 -0.8580  0.2184 -0.1585
  111POPC    HA14766   4.345   4.254   2.479 -4.4426 -3.2899  1.7156
  111POPC    HB14767   4.517   4.276   2.556 -1.6275  1.5759 -0.0782
  111POPC    C214768   4.358   4.241   2.693 -0.1989  0.3062  0.1285
  111POPC    HS14769   4.372   4.348   2.718  3.4362 -0.5920  2.3153
  111POPC   O2114770   4.418   4.147   2.782 -0.3812  0.4085  0.3591
  111POPC   C2114771   4.515   4.198   2.859 -0.4964  0.4585  0.4724
  111POPC   O2214772   4.557   4.312   2.850 -0.2682  0.3970  0.7901
  111POPC   C2214773   4.548   4.102   2.971  0.2499  0.0368 -0.1048
  111POPC   H2R14774   4.656   4.078   2.987  0.0030  0.0922  1.7928
  111POPC   H2S14775   4.498   4.004   2.953  0.3546  0.0713 -0.5811
  111POPC    C314776   4.211   4.195   2.694 -0.2942  0.6052 -0.0075
  111POPC    HX14777   4.201   4.105   2.628  0.0369  0.2969  0.3627
  111POPC    HY14778   4.144   4.277   2.660 -0.5194 -0.0293 -1.1226
  111POPC   O3114779   4.169   4.159   2.825  0.0358 -0.4122 -0.1679
  111POPC   C3114780   4.121   4.257   2.903 -0.9699 -0.8762 -0.1993
  111POPC   O3214781   4.125   4.374   2.869  0.4360 -0.7025  0.5471
  111POPC   C3214782   4.066   4.198   3.032 -0.4856  0.0442  0.4255
  111POPC   H2X14783   4.117   4.099   3.032  0.4261  0.4928 -1.9752
  111POPC   H2Y14784   3.957   4.181   3.029 -0.4863  0.1809 -0.2825
  111POPC   C2314785   4.509   4.175   3.100  0.2375 -0.0239 -0.0738
  111POPC   H3R14786   4.399   4.180   3.095  0.1219 -1.2670  0.9498
  111POPC   H3S14787   4.551   4.278   3.104  1.1751 -0.2961 -1.9299
  111POPC   C2414788   4.551   4.087   3.218 -0.1207 -0.2754 -0.1356
  111POPC   H4R14789   4.523   3.982   3.194  1.4471 -0.8796  0.6043
  111POPC   H4S14790   4.493   4.117   3.308  0.0127 -2.6549  0.7827
  111POPC   C2514791   4.700   4.092   3.251 -0.0463  0.0213 -0.5130
  111POPC   H5R14792   4.758   4.101   3.156 -1.4373 -0.1379 -1.3842
  111POPC   H5S14793   4.733   4.006   3.313  0.7428  0.0546 -0.8794
  111POPC   C2614794   4.723   4.225   3.324  0.5955 -0.3598 -0.0213
  111POPC   H6R14795   4.691   4.311   3.262 -1.2701 -1.5918 -0.8265
  111POPC   H6S14796   4.828   4.235   3.360  0.5154  0.8803 -0.1252
  111POPC   C2714797   4.653   4.233   3.460  1.1989 -0.2082  0.2845
  111POPC   H7R14798   4.675   4.146   3.525  2.3630  0.4093  0.7290
  111POPC   H7S14799   4.544   4.252   3.460  0.8919 -1.8469  2.5130
  111POPC   C2814800   4.705   4.347   3.548  0.0581  0.5625 -0.0275
  111POPC   H8R14801   4.812   4.327   3.569 -0.2595 -2.2456 -0.8221
  111POPC   H8S14802   4.648   4.341   3.643 -0.8805 -0.1888 -0.6267
  111POPC   C2914803   4.689   4.479   3.478 -0.2528  0.3451 -0.3660
  111POPC   H9114804   4.701   4.475   3.369  2.3317  0.3115 -0.0992
  111POPC  C21014805   4.661   4.597   3.534 -0.1383  0.3239 -0.2639
  111POPC  H10114806   4.636   4.683   3.470 -0.0979  0.6787  0.1950
  111POPC  C21114807   4.643   4.628   3.680  0.2198  0.3198 -0.2179
  111POPC  H11R14808   4.717   4.704   3.712  0.3002  0.8436 -1.6279
  111POPC  H11S14809   4.655   4.538   3.744  1.2456  0.7479  0.2011
  111POPC  C21214810   4.498   4.676   3.693  0.1048 -0.0626 -0.0831
  111POPC  H12R14811   4.421   4.598   3.674  0.8328 -1.0037  0.7334
  111POPC  H12S14812   4.481   4.762   3.624  0.2209  0.7373  0.8807
  111POPC  C21314813   4.469   4.729   3.833  0.2667  0.0986 -0.1095
  111POPC  H13R14814   4.543   4.807   3.859 -0.0695  0.2832  0.3029
  111POPC  H13S14815   4.483   4.648   3.907  0.2530 -1.0275 -1.3159
  111POPC  C21414816   4.335   4.801   3.815  0.4439  0.4304 -0.1157
  111POPC  H14R14817   4.264   4.719   3.789  0.3945  0.1242  0.9329
  111POPC  H14S14818   4.336   4.880   3.737 -1.5185 -0.5121 -1.1506
  111POPC  C21514819   4.277   4.866   3.942  0.1357  0.2638 -0.1690
  111POPC  H15R14820   4.338   4.957   3.960 -0.3591  0.9003 -1.6922
  111POPC  H15S14821   4.286   4.792   4.024 -2.2167 -0.8319 -0.8664
  111POPC  C21614822   4.130   4.903   3.923  0.1772  0.3311 -0.3658
  111POPC  H16R14823   4.072   4.813   3.954  1.2712 -0.0918  0.4886
  111POPC  H16S14824   4.115   4.932   3.817 -0.5282  0.8055 -0.1359
  111POPC  C21714825   4.086   5.022   4.009 -0.2967  0.2341 -0.4715
  111POPC  H17R14826   4.150   5.112   3.995  0.8386 -0.6645 -1.2428
  111POPC  H17S14827   4.091   4.994   4.116  0.4176 -1.7302 -0.9803
  111POPC  C21814828   3.940   5.061   3.987 -0.4037  0.0337 -0.1136
  111POPC  H18R14829   3.872   4.974   3.997 -0.7705  0.3736  0.3602
  111POPC  H18S14830   3.916   5.111   3.891 -2.2335  2.2846  1.4595
  111POPC  H18T14831   3.914   5.139   4.062  3.5544  1.7087 -0.3534
  111POPC   C3314832   4.127   4.261   3.158  0.1476  0.2147  0.0351
  111POPC   H3X14833   4.050   4.339   3.176 -0.5494 -0.0988 -1.5456
  111POPC   H3Y14834   4.223   4.317   3.149  0.7332 -0.8321 -0.4261
  111POPC   C3414835   4.115   4.155   3.268  0.1610  0.4119  0.2247
  111POPC   H4X14836   4.195   4.082   3.242 -2.0881 -1.5327 -1.3555
  111POPC   H4Y14837   4.016   4.105   3.272  0.2727  0.1143 -0.6700
  111POPC   C3514838   4.136   4.208   3.410  0.1128 -0.0253  0.3939
  111POPC   H5X14839   4.057   4.283   3.431  1.0895  1.6420 -1.7226
  111POPC   H5Y14840   4.234   4.262   3.411  0.5508 -0.8017  1.3622
  111POPC   C3614841   4.155   4.100   3.518  0.4834 -0.4452 -0.0871
  111POPC   H6X14842   4.248   4.040   3.505  0.8453 -0.3449  1.9417
  111POPC   H6Y14843   4.068   4.033   3.504  0.4646 -0.2626 -0.8753
  111POPC   C3714844   4.151   4.152   3.662 -0.4269  0.5763 -0.4744
  111POPC   H7X14845   4.160   4.060   3.723  0.1540  1.5327  0.8987
  111POPC   H7Y14846   4.049   4.190   3.685 -1.2597 -1.7628 -0.1342
  111POPC   C3814847   4.245   4.265   3.703 -0.5946  0.5398  0.0112
  111POPC   H8X14848   4.200   4.360   3.666  0.0337  1.1080  0.6843
  111POPC   H8Y14849   4.343   4.246   3.654 -0.5631 -1.0621  0.6832
  111POPC   C3914850   4.258   4.273   3.855  0.2354 -0.1684 -0.0232
  111POPC   H9X14851   4.316   4.186   3.894 -0.8952 -1.1841 -0.5446
  111POPC   H9Y14852   4.156   4.275   3.900  0.3815 -1.1415  0.3804
  111POPC  C31014853   4.323   4.403   3.900  0.1014 -0.1405  0.0894
  111POPC  H10X14854   4.248   4.484   3.883  0.0880 -0.4778 -1.5805
  111POPC  H10Y14855   4.414   4.411   3.836  1.1903  3.2755  1.8913
  111POPC  C31114856   4.379   4.403   4.042  0.3373 -0.8175 -0.0036
  111POPC  H11X14857   4.415   4.507   4.059 -0.0145 -0.5934 -0.6018
  111POPC  H11Y14858   4.469   4.338   4.031  0.5475 -0.2969 -1.4715
  111POPC  C31214859   4.285   4.365   4.157  0.0230 -0.2240 -0.0631
  111POPC  H12X14860   4.236   4.267   4.140  1.7134 -0.8667 -1.3202
  111POPC  H12Y14861   4.207   4.440   4.182 -0.6037 -0.3100 -1.6458
  111POPC  C31314862   4.363   4.322   4.281  0.0558 -0.1450 -0.0564
  111POPC  H13X14863   4.439   4.395   4.315 -0.4850  0.6019 -0.4377
  111POPC  H13Y14864   4.419   4.229   4.255 -1.3624 -1.4807  1.5416
  111POPC  C31414865   4.267   4.278   4.392  0.0408  1.0136  0.3960
  111POPC  H14X14866   4.187   4.210   4.355  3.9385 -1.7195 -3.5296
  111POPC  H14Y14867   4.222   4.374   4.425 -0.1814  0.1716  2.6423
  111POPC  C31514868   4.327   4.230   4.524  0.1521 -0.5643 -0.2174
  111POPC  H15X14869   4.359   4.124   4.511 -1.9229 -1.0863 -1.2986
  111POPC  H15Y14870   4.249   4.241   4.603 -0.1687  1.8309 -0.8425
  111POPC  C31614871   4.442   4.312   4.581 -0.1329 -0.1214 -0.2794
  111POPC  H16X14872   4.407   4.418   4.585 -1.4882 -0.5591 -0.4649
  111POPC  H16Y14873   4.526   4.299   4.509  0.1273 -0.0051  0.0038
  111POPC  H16Z14874   4.477   4.278   4.681 -0.7934 -0.2264 -0.0802
  112POPC     N14875   2.742   6.415   2.105 -0.1272 -0.2594  0.1468
  112POPC   C1214876   2.804   6.496   1.993 -0.3491 -0.4371 -0.1068
  112POPC  H12A14880   2.734   6.567   1.951  0.9477  0.0773 -1.4125
  112POPC  H12B14881   2.807   6.434   1.905 -0.8564  1.0572 -1.2027
  112POPC   C1314877   2.827   6.294   2.139 -0.1577 -0.2254  0.3435
  112POPC  H13A14882   2.786   6.232   2.217  2.5563 -1.5306  0.7918
  112POPC  H13B14883   2.852   6.233   2.053  0.2461 -2.4883  2.0267
  112POPC  H13C14884   2.919   6.341   2.169  0.6915 -1.1750 -0.7415
  112POPC   C1414878   2.728   6.507   2.223 -0.5312 -0.5195  0.3005
  112POPC  H14A14885   2.674   6.592   2.183  0.6413 -0.3266 -0.8981
  112POPC  H14B14886   2.664   6.466   2.300 -1.2941 -1.1620 -0.6615
  112POPC  H14C14887   2.824   6.542   2.257 -1.1885 -1.7541  3.7301
  112POPC   C1514879   2.607   6.369   2.056 -0.4009  0.0316  0.6386
  112POPC  H15A14888   2.611   6.319   1.961 -1.0119 -1.0293  1.1624
  112POPC  H15B14889   2.546   6.456   2.035  1.1074  0.0515 -4.0498
  112POPC  H15C14890   2.552   6.310   2.129 -0.0799  1.9059  2.4561
  112POPC   C1114891   2.938   6.567   2.016 -0.6079  0.0650 -0.1275
  112POPC  H11A14892   2.925   6.654   2.083 -1.7738  0.1754 -0.4735
  112POPC  H11B14893   2.965   6.614   1.919  2.8103  0.9926  1.2324
  112POPC     P14894   3.185   6.532   2.086 -0.0539 -0.5822  0.2238
  112POPC   O1314895   3.175   6.677   2.116 -0.0558 -0.4255 -0.5121
  112POPC   O1414896   3.264   6.487   1.969 -0.2211 -0.1243 -0.0682
  112POPC   O1214897   3.037   6.475   2.063 -0.2868  0.2652 -0.4115
  112POPC   O1114898   3.249   6.452   2.208  0.3083 -0.3702  0.1741
  112POPC    C114899   3.165   6.360   2.278 -0.2167 -0.1230 -0.1309
  112POPC    HA14900   3.150   6.269   2.215 -0.7240  0.1180 -0.3614
  112POPC    HB14901   3.059   6.393   2.289  0.5485  2.0132  1.0618
  112POPC    C214902   3.209   6.311   2.417  0.1150 -0.0537 -0.2101
  112POPC    HS14903   3.116   6.309   2.478 -0.3656 -1.0846 -0.9615
  112POPC   O2114904   3.311   6.396   2.470 -0.1573 -0.0148  0.2584
  112POPC   C2114905   3.271   6.500   2.543  0.0876  0.6880 -0.6060
  112POPC   O2214906   3.154   6.532   2.556 -0.0859 -0.0625 -0.3091
  112POPC   C2214907   3.393   6.556   2.615  0.1703 -0.3382  0.0612
  112POPC   H2R14908   3.479   6.571   2.546  1.2784 -1.8001  1.1086
  112POPC   H2S14909   3.434   6.488   2.692  2.5499  0.0398 -0.8310
  112POPC    C314910   3.263   6.167   2.408  0.0075 -0.0994 -0.1207
  112POPC    HX14911   3.329   6.161   2.319 -0.4591 -3.8912 -0.2921
  112POPC    HY14912   3.170   6.107   2.392 -0.0574  0.3039 -1.3125
  112POPC   O3114913   3.326   6.130   2.531 -0.1080 -0.1624 -0.0801
  112POPC   C3114914   3.344   5.998   2.540  0.4884 -0.0478  0.4305
  112POPC   O3214915   3.303   5.918   2.457  0.4416  0.0622  0.3477
  112POPC   C3214916   3.461   5.966   2.631  0.2837  0.1146  0.7487
  112POPC   H2X14917   3.541   6.042   2.622  0.9738 -0.5366  1.3005
  112POPC   H2Y14918   3.504   5.868   2.600 -3.5288 -1.5168  0.3262
  112POPC   C2314919   3.358   6.686   2.687  0.4394 -0.1249 -0.1899
  112POPC   H3R14920   3.253   6.679   2.723  0.1667 -0.5045 -1.0552
  112POPC   H3S14921   3.360   6.771   2.615  2.0948 -0.3481 -0.4185
  112POPC   C2414922   3.457   6.723   2.797  0.0896  0.2328  0.0069
  112POPC   H4R14923   3.552   6.739   2.742  0.5578 -1.3072  0.3349
  112POPC   H4S14924   3.458   6.636   2.866 -3.8764  0.3756  0.3809
  112POPC   C2514925   3.432   6.828   2.905 -0.2101  0.4281 -0.2509
  112POPC   H5R14926   3.438   6.922   2.846  2.6277  2.7205  3.4515
  112POPC   H5S14927   3.522   6.824   2.970  0.9049 -3.6161 -1.9296
  112POPC   C2614928   3.298   6.815   2.979 -0.0966 -0.0663 -0.1338
  112POPC   H6R14929   3.275   6.711   3.009 -0.8189  0.1546  0.0735
  112POPC   H6S14930   3.223   6.843   2.902  0.0436 -1.0684 -0.6456
  112POPC   C2714931   3.283   6.906   3.101  0.1281 -0.2273  0.0146
  112POPC   H7R14932   3.181   6.927   3.138 -0.2514 -1.4422 -0.3320
  112POPC   H7S14933   3.333   7.002   3.075 -2.6824  0.8315 -1.7205
  112POPC   C2814934   3.345   6.837   3.223  0.4231 -0.2745 -0.1626
  112POPC   H8R14935   3.441   6.791   3.190  0.9535  0.8547 -0.2336
  112POPC   H8S14936   3.271   6.758   3.246 -0.2224 -0.0032 -1.2559
  112POPC   C2914937   3.350   6.927   3.343  0.5550  0.0036 -0.3767
  112POPC   H9114938   3.266   6.996   3.360  0.8852  0.6893 -1.4303
  112POPC  C21014939   3.446   6.935   3.436  0.1342 -0.2618  0.0764
  112POPC  H10114940   3.436   7.022   3.503 -0.1861 -0.9264  0.8992
  112POPC  C21114941   3.574   6.857   3.438  0.3619  0.1174  0.4207
  112POPC  H11R14942   3.637   6.872   3.348  0.9381 -1.4958  0.5393
  112POPC  H11S14943   3.546   6.750   3.448 -1.0137  0.6190  2.3018
  112POPC  C21214944   3.668   6.894   3.553  0.4239  0.4323  0.2688
  112POPC  H12R14945   3.657   7.004   3.553 -0.5471  0.3701  2.8172
  112POPC  H12S14946   3.765   6.846   3.526 -0.2277 -0.8471  0.1406
  112POPC  C21314947   3.622   6.844   3.690  0.3128 -0.0174  0.0662
  112POPC  H13R14948   3.625   6.734   3.673 -1.2462 -0.1698  0.7174
  112POPC  H13S14949   3.518   6.880   3.707 -0.0453 -1.3849  0.9058
  112POPC  C21414950   3.723   6.886   3.797  0.5237 -0.0782 -0.1087
  112POPC  H14R14951   3.822   6.856   3.756  0.1849 -2.0070  0.4528
  112POPC  H14S14952   3.703   6.831   3.891 -0.0493  0.0850 -0.1350
  112POPC  C21514953   3.735   7.036   3.826  0.1855 -0.1516  0.4055
  112POPC  H15R14954   3.739   7.099   3.735 -0.0681 -0.4118  0.2098
  112POPC  H15S14955   3.828   7.038   3.886 -0.8634  0.0091  2.0670
  112POPC  C21614956   3.624   7.071   3.925 -0.1005 -0.3228  0.1485
  112POPC  H16R14957   3.614   6.988   4.000 -0.6450 -1.3574 -1.0482
  112POPC  H16S14958   3.522   7.068   3.880 -0.1438 -2.3307  0.3267
  112POPC  C21714959   3.651   7.197   4.007  0.0212 -0.4826  0.3589
  112POPC  H17R14960   3.612   7.280   3.944 -2.2035  1.0963  3.6672
  112POPC  H17S14961   3.761   7.208   4.015  0.2267 -1.7073 -0.6844
  112POPC  C21814962   3.579   7.204   4.141 -0.4570 -0.1531  0.0851
  112POPC  H18R14963   3.582   7.108   4.196  0.3894 -0.6431 -0.8048
  112POPC  H18S14964   3.473   7.224   4.113  0.1458  0.6910 -1.6809
  112POPC  H18T14965   3.614   7.289   4.204  0.1448  0.2709 -0.8059
  112POPC   C3314966   3.412   5.966   2.776  0.2141  0.1514  0.7245
  112POPC   H3X14967   3.360   6.062   2.795 -0.7631 -0.6285  2.1099
  112POPC   H3Y14968   3.505   5.960   2.837 -0.1413  2.3243  1.5304
  112POPC   C3414969   3.314   5.854   2.814  0.1383  0.1125  0.4176
  112POPC   H4X14970   3.223   5.858   2.750  0.9725  1.7298 -0.6997
  112POPC   H4Y14971   3.291   5.858   2.923  1.1270 -2.1374  0.7567
  112POPC   C3514972   3.365   5.714   2.778  0.4557  0.2018  0.5187
  112POPC   H5X14973   3.470   5.705   2.813  0.2494  0.6106  1.2681
  112POPC   H5Y14974   3.350   5.720   2.668 -2.3265 -0.8868  0.7769
  112POPC   C3614975   3.285   5.610   2.857  0.3282  0.0031  0.1246
  112POPC   H6X14976   3.186   5.623   2.808  1.4256  1.5925 -1.7033
  112POPC   H6Y14977   3.286   5.627   2.967 -1.2776  0.3733  0.0950
  112POPC   C3714978   3.340   5.469   2.835  0.4755  0.1037 -0.1595
  112POPC   H7X14979   3.440   5.450   2.879  0.8726 -2.2780 -1.9910
  112POPC   H7Y14980   3.345   5.447   2.726 -0.2111 -2.4974  0.2947
  112POPC   C3814981   3.259   5.355   2.897  0.3616  0.2499 -0.0396
  112POPC   H8X14982   3.292   5.257   2.856 -0.0996  0.1597 -0.1971
  112POPC   H8Y14983   3.151   5.364   2.872  0.1894 -2.4484 -0.3913
  112POPC   C3914984   3.260   5.344   3.049 -0.2910 -0.4730 -0.0830
  112POPC   H9X14985   3.189   5.420   3.090  0.3788 -0.2890  0.7441
  112POPC   H9Y14986   3.366   5.361   3.077 -0.4758  0.4396  0.1013
  112POPC  C31014987   3.212   5.205   3.092 -0.1679 -0.5049 -0.0487
  112POPC  H10X14988   3.273   5.123   3.049 -0.1002 -1.1062  1.1763
  112POPC  H10Y14989   3.109   5.194   3.053 -0.3443 -1.9960  0.8040
  112POPC  C31114990   3.208   5.187   3.244  0.6755 -0.2941  0.0013
  112POPC  H11X14991   3.150   5.266   3.296 -0.8141 -0.4764 -1.3480
  112POPC  H11Y14992   3.310   5.201   3.286  0.1331 -1.2224  1.7042
  112POPC  C31214993   3.150   5.055   3.295 -0.2747  0.2298  0.2872
  112POPC  H12X14994   3.241   4.991   3.301  1.6340  2.8208 -0.0244
  112POPC  H12Y14995   3.095   5.005   3.212  1.9115 -0.6649 -0.6708
  112POPC  C31314996   3.057   5.069   3.415 -0.0862  0.2957  0.4258
  112POPC  H13X14997   2.978   4.993   3.395  0.4894 -0.3508  0.5875
  112POPC  H13Y14998   3.006   5.167   3.425  1.5413  1.1403  0.6376
  112POPC  C31414999   3.122   5.024   3.546  0.0275 -0.0046  0.2653
  112POPC  H14X15000   3.049   5.035   3.629 -1.4094 -2.3019 -0.6153
  112POPC  H14Y15001   3.198   5.098   3.579  0.9798 -1.3673  1.1950
  112POPC  C31515002   3.176   4.880   3.549 -0.0042 -0.0266 -0.1735
  112POPC  H15X15003   3.258   4.846   3.483  0.1205 -2.4435  1.1949
  112POPC  H15Y15004   3.086   4.822   3.521 -0.1904 -0.0888  0.5465
  112POPC  C31615005   3.216   4.828   3.687 -0.7993  0.0068  0.0745
  112POPC  H16X15006   3.273   4.733   3.676  1.3091  1.0057  1.7633
  112POPC  H16Y15007   3.138   4.816   3.764  0.6115  0.5275  1.6200
  112POPC  H16Z15008   3.287   4.897   3.738  1.1865 -0.5135 -1.8701
  113POPC     N15009   5.431   2.454   2.379  0.2407  0.0556  0.0060
  113POPC   C1215010   5.385   2.457   2.523  0.2648  0.0498  0.0139
  113POPC  H12A15014   5.387   2.357   2.564 -3.5301 -1.2880 -2.7280
  113POPC  H12B15015   5.277   2.469   2.522  0.2611 -0.0400 -0.7071
  113POPC   C1315011   5.343   2.367   2.294  0.4719 -0.0016 -0.1778
  113POPC  H13A15016   5.359   2.265   2.325 -0.7942  0.3343  1.7221
  113POPC  H13B15017   5.241   2.390   2.324  0.8865 -0.2608  1.4844
  113POPC  H13C15018   5.365   2.368   2.189 -0.8788  0.7074 -0.4682
  113POPC   C1415012   5.423   2.595   2.325  1.0917  0.2920  0.4780
  113POPC  H14A15019   5.457   2.604   2.223 -0.3763  0.2939 -0.0233
  113POPC  H14B15020   5.322   2.634   2.332 -0.3840 -3.3865  0.9182
  113POPC  H14C15021   5.487   2.661   2.382 -0.0663  1.2413  0.6993
  113POPC   C1515013   5.572   2.399   2.376  0.1978 -0.1013  0.6744
  113POPC  H15A15022   5.640   2.451   2.441  0.5837  1.6505 -1.0864
  113POPC  H15B15023   5.599   2.406   2.272 -2.2083 -1.4071 -0.0778
  113POPC  H15C15024   5.573   2.299   2.417 -0.4349  0.3175  1.7276
  113POPC   C1115025   5.445   2.557   2.622  0.0255  0.3984 -0.1947
  113POPC  H11A15026   5.423   2.521   2.724 -1.6129  0.2460 -0.5824
  113POPC  H11B15027   5.376   2.642   2.601 -0.9538  0.0827  1.6696
  113POPC     P15028   5.631   2.731   2.609  0.1463  0.3790  0.0692
  113POPC   O1315029   5.513   2.816   2.581 -0.2616 -0.2834 -0.2392
  113POPC   O1415030   5.751   2.747   2.525  0.0917  0.1926 -0.0439
  113POPC   O1215031   5.584   2.579   2.597  0.0672  0.4044  0.0487
  113POPC   O1115032   5.667   2.753   2.763  0.4316  0.3077  0.0119
  113POPC    C115033   5.783   2.696   2.824  0.3137 -0.1539 -0.1902
  113POPC    HA15034   5.809   2.769   2.903  1.8247 -0.0202 -0.7924
  113POPC    HB15035   5.864   2.696   2.747 -1.5208  1.8894 -2.1847
  113POPC    C215036   5.754   2.561   2.890  0.1781  0.1664  0.4057
  113POPC    HS15037   5.734   2.496   2.802 -0.7436  2.1108 -0.8596
  113POPC   O2115038   5.630   2.571   2.961 -0.0326 -0.3086  0.1083
  113POPC   C2115039   5.571   2.453   2.980  0.3719 -0.4885  0.2455
  113POPC   O2215040   5.615   2.344   2.947 -0.1118 -0.6413  0.1055
  113POPC   C2215041   5.433   2.471   3.041  0.3077 -0.2793  0.0399
  113POPC   H2R15042   5.354   2.477   2.963  0.0856  1.6267  0.3933
  113POPC   H2S15043   5.436   2.563   3.103  0.5769  1.0700 -1.9443
  113POPC    C315044   5.869   2.507   2.976 -0.3199 -0.4026  0.7191
  113POPC    HX15045   5.954   2.511   2.905 -2.1061 -0.1229 -1.4422
  113POPC    HY15046   5.863   2.397   2.993 -0.0438 -0.1812  2.4004
  113POPC   O3115047   5.898   2.589   3.089  0.0207  0.1395  0.2390
  113POPC   C3115048   5.847   2.548   3.206 -0.5383  0.2256  0.0288
  113POPC   O3215049   5.773   2.451   3.211 -0.2543 -0.0271 -0.5578
  113POPC   C3215050   5.893   2.637   3.320 -0.0799  0.0095  0.0165
  113POPC   H2X15051   5.897   2.741   3.280 -1.5640  0.3411  0.6817
  113POPC   H2Y15052   6.000   2.618   3.343  0.2687 -0.3340 -1.8265
  113POPC   C2315053   5.394   2.348   3.123  0.0751 -0.1237  0.1635
  113POPC   H3R15054   5.482   2.323   3.186 -0.0731 -4.0281 -1.0326
  113POPC   H3S15055   5.377   2.258   3.061 -0.7794 -0.5928  1.0468
  113POPC   C2415056   5.278   2.366   3.221  0.2301  0.0458  0.3167
  113POPC   H4R15057   5.271   2.266   3.268  1.1208  0.5803  1.6207
  113POPC   H4S15058   5.180   2.378   3.170  1.5494 -1.2029 -2.6249
  113POPC   C2515059   5.303   2.476   3.325 -0.8015  0.8996 -0.3204
  113POPC   H5R15060   5.237   2.462   3.412 -0.7100 -0.5206 -0.4530
  113POPC   H5S15061   5.281   2.573   3.275  0.8586  0.7162 -1.4663
  113POPC   C2615062   5.442   2.487   3.389 -0.4231 -0.8554 -0.7835
  113POPC   H6R15063   5.446   2.583   3.445 -2.2109 -0.3181 -1.5302
  113POPC   H6S15064   5.511   2.497   3.303 -1.2781 -0.0108 -1.3889
  113POPC   C2715065   5.467   2.362   3.474  0.4716  0.0065  0.2348
  113POPC   H7R15066   5.431   2.271   3.422  2.3251  0.1092 -1.2918
  113POPC   H7S15067   5.396   2.374   3.558  2.8838  3.8216  1.9042
  113POPC   C2815068   5.609   2.344   3.528  0.1770  0.3127  1.1229
  113POPC   H8R15069   5.634   2.433   3.590  0.5685  1.8739 -1.2210
  113POPC   H8S15070   5.682   2.331   3.445  0.9584 -0.1759  1.8774
  113POPC   C2915071   5.608   2.217   3.609 -0.6168 -0.4895 -0.1302
  113POPC   H9115072   5.580   2.129   3.549 -2.8406  0.4779 -0.5364
  113POPC  C21015073   5.651   2.201   3.735  0.0845 -0.3575 -0.3451
  113POPC  H10115074   5.637   2.104   3.784  0.3671 -0.0322  0.3752
  113POPC  C21115075   5.704   2.312   3.821 -0.3925 -0.3985  0.0046
  113POPC  H11R15076   5.754   2.386   3.756 -0.7785  2.0323  2.4181
  113POPC  H11S15077   5.775   2.288   3.904  2.0805  0.8943 -1.6790
  113POPC  C21215078   5.596   2.396   3.889 -0.1534 -0.1410  0.0712
  113POPC  H12R15079   5.566   2.337   3.978  4.0515 -0.0092  1.6407
  113POPC  H12S15080   5.505   2.414   3.828  0.0319  0.9310  0.1155
  113POPC  C21315081   5.649   2.525   3.950 -0.2089 -0.1127  0.0590
  113POPC  H13R15082   5.643   2.594   3.864  0.3598 -0.1116  0.0162
  113POPC  H13S15083   5.758   2.517   3.973 -0.4012  1.4174  1.5677
  113POPC  C21415084   5.576   2.577   4.075  0.3581 -0.2138  0.4356
  113POPC  H14R15085   5.615   2.524   4.164  0.6329 -1.8552 -0.6302
  113POPC  H14S15086   5.468   2.552   4.070  0.3724  0.0214 -1.4314
  113POPC  C21515087   5.595   2.728   4.082 -0.5045 -0.1002  0.3334
  113POPC  H15R15088   5.573   2.758   3.977  1.9791 -0.8943 -0.4601
  113POPC  H15S15089   5.703   2.748   4.101 -0.4813  0.1309 -0.0189
  113POPC  C21615090   5.516   2.791   4.197 -0.0990  0.3777  0.3563
  113POPC  H16R15091   5.569   2.754   4.287  2.3619  1.2626 -0.6960
  113POPC  H16S15092   5.409   2.760   4.195 -0.4184  1.4942 -2.1126
  113POPC  C21715093   5.517   2.944   4.201  0.1603  0.3925 -0.1467
  113POPC  H17R15094   5.435   2.977   4.269 -0.5222 -2.4842  0.5013
  113POPC  H17S15095   5.493   2.986   4.101 -0.8672 -0.8846 -0.4573
  113POPC  C21815096   5.646   3.010   4.248  0.6069 -0.4379 -0.1775
  113POPC  H18R15097   5.733   2.994   4.181  0.6501 -2.1792  0.2795
  113POPC  H18S15098   5.675   2.968   4.347  5.3438  0.2199 -1.1977
  113POPC  H18T15099   5.625   3.119   4.255  0.6424 -0.4109 -0.5230
  113POPC   C3315100   5.812   2.630   3.450 -0.0787  0.0772  0.0214
  113POPC   H3X15101   5.854   2.544   3.507 -2.0262 -2.3370 -2.0263
  113POPC   H3Y15102   5.705   2.606   3.432  0.0348  0.5663 -1.3360
  113POPC   C3415103   5.815   2.764   3.523 -0.3240  0.1761 -0.1516
  113POPC   H4X15104   5.758   2.839   3.464 -0.4255  1.5347  1.6414
  113POPC   H4Y15105   5.920   2.796   3.541 -0.3136  1.1909 -1.8521
  113POPC   C3515106   5.746   2.747   3.658  0.3210  0.0795  0.1677
  113POPC   H5X15107   5.793   2.664   3.715  0.4958 -1.2618 -1.9025
  113POPC   H5Y15108   5.637   2.735   3.644  0.0715  0.3861  1.7097
  113POPC   C3615109   5.762   2.867   3.752  0.7146  0.1160  0.0537
  113POPC   H6X15110   5.681   2.857   3.827  0.8546 -0.8716  0.0862
  113POPC   H6Y15111   5.766   2.959   3.690  0.9902  0.5465  0.7020
  113POPC   C3715112   5.903   2.864   3.813  0.5467 -0.3284  0.4291
  113POPC   H7X15113   5.979   2.894   3.738 -0.2727  1.1939  0.1746
  113POPC   H7Y15114   5.932   2.765   3.854  1.1373  0.0698  0.9854
  113POPC   C3815115   5.908   2.967   3.926  0.7005 -0.1652  0.2747
  113POPC   H8X15116   5.828   2.952   4.001  0.6520  2.5517  0.8089
  113POPC   H8Y15117   5.903   3.067   3.879 -0.1703 -0.5848 -0.5328
  113POPC   C3915118   6.049   2.965   3.986  0.6281 -0.1009  0.4468
  113POPC   H9X15119   6.122   2.992   3.906  1.5649  2.1572  2.0041
  113POPC   H9Y15120   6.074   2.866   4.029 -2.7705 -0.1908  2.3446
  113POPC  C31015121   6.070   3.077   4.088  0.1026  0.4215 -0.0131
  113POPC  H10X15122   6.010   3.043   4.176  0.5283  3.3804  1.4861
  113POPC  H10Y15123   6.046   3.180   4.053 -2.0133  0.7124  2.1398
  113POPC  C31115124   6.218   3.070   4.126  0.3132  0.5116 -0.8133
  113POPC  H11X15125   6.266   3.126   4.043 -0.0418  1.6918 -0.2334
  113POPC  H11Y15126   6.246   2.963   4.117 -0.3113  0.2315  0.5105
  113POPC  C31215127   6.234   3.132   4.265 -0.5688  0.3911 -0.6521
  113POPC  H12X15128   6.343   3.138   4.287  0.0290 -3.0466 -2.2545
  113POPC  H12Y15129   6.200   3.058   4.340  0.0607 -0.2776 -1.0141
  113POPC  C31315130   6.171   3.271   4.280 -0.1211  0.5180  0.0746
  113POPC  H13X15131   6.061   3.257   4.289 -0.1194  1.0446  0.9215
  113POPC  H13Y15132   6.188   3.344   4.199 -1.2997 -0.4988 -1.1157
  113POPC  C31415133   6.221   3.340   4.407  0.2150  0.0061  0.2217
  113POPC  H14X15134   6.325   3.376   4.388 -0.6961  1.7120 -1.7134
  113POPC  H14Y15135   6.232   3.265   4.489 -1.0021 -1.7231 -1.1520
  113POPC  C31515136   6.127   3.454   4.442  0.0044 -0.0740 -0.0825
  113POPC  H15X15137   6.020   3.424   4.447  0.3070 -1.0920  0.3855
  113POPC  H15Y15138   6.131   3.531   4.362 -1.7347  0.6234  0.4581
  113POPC  C31615139   6.160   3.519   4.576  0.0213 -0.8800  0.3075
  113POPC  H16X15140   6.133   3.446   4.655 -0.0864  0.6830  1.7573
  113POPC  H16Y15141   6.106   3.615   4.594  0.2339 -1.0838  2.1818
  113POPC  H16Z15142   6.270   3.538   4.583 -0.0800 -0.3759  0.5692
  114POPC     N15143   4.667   2.802   2.445 -0.4573  0.1278  0.6804
  114POPC   C1215144   4.592   2.879   2.551 -0.0749  0.5116  0.6737
  114POPC  H12A15148   4.656   2.924   2.626 -0.6255 -0.6340  1.8587
  114POPC  H12B15149   4.539   2.806   2.611 -1.2710 -0.0353 -1.0168
  114POPC   C1315145   4.764   2.705   2.509 -0.3656  0.3323  0.8503
  114POPC  H13A15150   4.852   2.752   2.551 -1.3928  1.4415  1.8017
  114POPC  H13B15151   4.715   2.645   2.584  0.8527 -0.0332  1.3812
  114POPC  H13C15152   4.799   2.636   2.434  0.3756  0.0368  1.4574
  114POPC   C1415146   4.580   2.718   2.355  0.2376  0.0305  0.0907
  114POPC  H14A15153   4.533   2.637   2.409  2.0312 -0.3226  1.1656
  114POPC  H14B15154   4.498   2.778   2.316  0.9137  0.7990 -0.1621
  114POPC  H14C15155   4.633   2.680   2.269  1.1996  1.5132  0.0030
  114POPC   C1515147   4.730   2.905   2.354  0.1993 -0.3625  0.5720
  114POPC  H15A15156   4.806   2.964   2.403  2.1305 -1.6284 -0.8323
  114POPC  H15B15157   4.654   2.977   2.328 -0.2880 -1.0513  0.0597
  114POPC  H15C15158   4.772   2.856   2.268  1.1197  0.1116  0.7520
  114POPC   C1115159   4.492   2.987   2.510 -0.3491  0.0373  0.0725
  114POPC  H11A15160   4.551   3.064   2.456  0.4305 -1.1707 -0.8112
  114POPC  H11B15161   4.449   3.022   2.607  0.8358 -1.7064  1.2664
  114POPC     P15162   4.304   3.035   2.353  0.2239  0.0506 -0.3379
  114POPC   O1315163   4.194   2.963   2.286 -0.1264 -0.3188  0.6206
  114POPC   O1415164   4.381   3.138   2.281  0.3086  0.2874  0.0900
  114POPC   O1215165   4.400   2.926   2.420 -0.0726 -0.0827 -0.1266
  114POPC   O1115166   4.247   3.094   2.490 -0.2019 -0.2980 -0.3644
  114POPC    C115167   4.117   3.153   2.486 -0.0285  0.1277  0.1251
  114POPC    HA15168   4.080   3.174   2.588 -2.5319  0.9637 -0.9073
  114POPC    HB15169   4.041   3.091   2.433 -1.6233  1.6352  0.5999
  114POPC    C215170   4.113   3.291   2.418  0.0320  0.0392 -0.0559
  114POPC    HS15171   4.121   3.271   2.309  1.4035  1.6996 -0.2782
  114POPC   O2115172   4.222   3.378   2.450 -0.2757  0.4057 -0.0058
  114POPC   C2115173   4.246   3.469   2.356 -0.1861  0.2049 -0.1784
  114POPC   O2215174   4.180   3.500   2.258 -0.3167 -0.3847 -0.2767
  114POPC   C2215175   4.373   3.542   2.397 -0.1883 -0.1756  0.5265
  114POPC   H2R15176   4.401   3.621   2.323 -1.6726 -1.7206 -1.7511
  114POPC   H2S15177   4.455   3.468   2.393  0.5739  0.6050  1.4821
  114POPC    C315178   3.975   3.358   2.428  0.1978  0.3644  0.0633
  114POPC    HX15179   3.886   3.295   2.405  0.0373  0.2891  0.8691
  114POPC    HY15180   3.971   3.446   2.361 -1.3726  1.7116  1.8883
  114POPC   O3115181   3.945   3.403   2.560 -0.1334  0.2082  0.0415
  114POPC   C3115182   3.942   3.534   2.580  0.5902  0.2030  0.2094
  114POPC   O3215183   3.948   3.626   2.499 -0.3712 -0.2763 -0.4252
  114POPC   C3215184   3.939   3.562   2.729 -0.1028 -0.4591  0.3219
  114POPC   H2X15185   4.035   3.527   2.772 -0.9856 -2.2446  0.8940
  114POPC   H2Y15186   3.870   3.499   2.790  0.5131 -2.3669 -0.9322
  114POPC   C2315187   4.368   3.601   2.538  0.0850  0.5323  0.2478
  114POPC   H3R15188   4.347   3.518   2.609  2.3706 -1.0972 -0.9020
  114POPC   H3S15189   4.292   3.681   2.546 -1.1963 -0.4318 -1.7386
  114POPC   C2415190   4.502   3.659   2.584  0.3516  0.0335  0.1053
  114POPC   H4R15191   4.535   3.742   2.517 -1.2971  0.4089 -0.2683
  114POPC   H4S15192   4.572   3.575   2.566  1.1447  0.7828 -0.3604
  114POPC   C2515193   4.505   3.715   2.726 -0.1377  0.1232  0.0842
  114POPC   H5R15194   4.440   3.651   2.789 -0.2281 -1.1581 -1.2955
  114POPC   H5S15195   4.451   3.812   2.724 -0.4976 -0.1045 -2.0800
  114POPC   C2615196   4.646   3.712   2.785 -0.1338  0.5437  0.1000
  114POPC   H6R15197   4.709   3.796   2.749 -0.4142  0.2392 -1.1000
  114POPC   H6S15198   4.695   3.622   2.742 -1.7154 -0.9044  1.2753
  114POPC   C2715199   4.640   3.702   2.938  0.5017  0.3192  0.1136
  114POPC   H7R15200   4.610   3.598   2.965  1.3998 -0.5338 -2.0192
  114POPC   H7S15201   4.558   3.764   2.980  0.4158  1.4098 -1.6337
  114POPC   C2815202   4.775   3.733   3.003  0.1012  0.5874  0.8252
  114POPC   H8R15203   4.797   3.830   2.954 -0.7957  0.4433  0.1203
  114POPC   H8S15204   4.861   3.673   2.967 -0.1621  1.7579 -1.8913
  114POPC   C2915205   4.762   3.738   3.152 -0.8328  0.3145  0.7580
  114POPC   H9115206   4.711   3.828   3.190 -0.2688 -0.1814  2.7734
  114POPC  C21015207   4.806   3.644   3.237 -0.1457  0.1950  0.2745
  114POPC  H10115208   4.804   3.667   3.345 -0.5362  0.6422  0.1743
  114POPC  C21115209   4.881   3.518   3.205  0.1299  0.3891  0.1540
  114POPC  H11R15210   4.987   3.527   3.237  0.9265  2.6268 -2.9297
  114POPC  H11S15211   4.874   3.507   3.095  0.3792 -1.0598  0.2743
  114POPC  C21215212   4.811   3.401   3.275 -0.1749  0.2963 -0.3019
  114POPC  H12R15213   4.853   3.303   3.244 -0.5155 -0.0318  0.2582
  114POPC  H12S15214   4.705   3.402   3.244 -0.7034 -1.1162  1.4029
  114POPC  C21315215   4.804   3.391   3.428 -0.1483  0.1792 -0.3085
  114POPC  H13R15216   4.738   3.305   3.452 -2.5330  1.8468 -0.7460
  114POPC  H13S15217   4.759   3.473   3.488  0.9363  0.9082 -0.4698
  114POPC  C21415218   4.941   3.358   3.488 -0.1713  0.4952 -0.0857
  114POPC  H14R15219   4.991   3.456   3.505 -0.3247  0.4089  0.8493
  114POPC  H14S15220   5.006   3.296   3.423  2.3519  1.2742  1.6376
  114POPC  C21515221   4.928   3.290   3.624  0.2732  0.7687  0.0955
  114POPC  H15R15222   5.033   3.281   3.660  0.5523 -1.8373 -1.2701
  114POPC  H15S15223   4.908   3.184   3.597  0.5536  0.3107  1.6571
  114POPC  C21615224   4.834   3.332   3.737 -0.4563 -0.2948 -0.1116
  114POPC  H16R15225   4.856   3.256   3.815  0.9527 -0.4523 -0.6607
  114POPC  H16S15226   4.728   3.311   3.709 -0.1812 -0.4209 -1.0661
  114POPC  C21715227   4.852   3.475   3.788 -0.2423 -0.1693 -0.5384
  114POPC  H17R15228   4.827   3.554   3.714 -1.9346  0.4070  0.6237
  114POPC  H17S15229   4.960   3.480   3.813 -0.4890 -1.3189  0.8174
  114POPC  C21815230   4.764   3.509   3.908  0.1489 -0.3926 -0.1869
  114POPC  H18R15231   4.660   3.492   3.872  1.3594 -1.1440 -3.4983
  114POPC  H18S15232   4.775   3.618   3.930 -2.5850  0.3234 -2.2015
  114POPC  H18T15233   4.784   3.446   3.997  2.3197  1.1345  0.4703
  114POPC   C3315234   3.912   3.708   2.768  0.6101 -0.2174 -0.0819
  114POPC   H3X15235   3.822   3.735   2.709  0.2012 -3.6944 -1.2005
  114POPC   H3Y15236   3.988   3.777   2.727  1.3848 -0.8550  0.2728
  114POPC   C3415237   3.886   3.746   2.914  0.2708 -0.3235 -0.1136
  114POPC   H4X15238   3.802   3.676   2.931  1.5966 -1.9843 -0.2962
  114POPC   H4Y15239   3.852   3.852   2.915  0.1633 -0.3689  1.4576
  114POPC   C3515240   4.001   3.732   3.014  0.5386 -0.3390 -0.4220
  114POPC   H5X15241   4.035   3.627   3.028  0.0566 -0.8484 -2.8338
  114POPC   H5Y15242   3.968   3.775   3.111  1.1727 -1.5440  0.3409
  114POPC   C3615243   4.127   3.812   2.983 -0.0485  0.5922 -0.4318
  114POPC   H6X15244   4.105   3.913   2.942  0.5422  0.1396 -1.8906
  114POPC   H6Y15245   4.182   3.758   2.903 -0.3032  0.4229 -0.4945
  114POPC   C3715246   4.228   3.819   3.097 -0.4688 -0.0378 -0.0165
  114POPC   H7X15247   4.197   3.889   3.177  2.9409  1.7575 -0.1506
  114POPC   H7Y15248   4.313   3.872   3.049  0.9499 -1.4719  0.8614
  114POPC   C3815249   4.260   3.684   3.162  0.0360 -0.0437 -0.2703
  114POPC   H8X15250   4.270   3.607   3.082 -2.8109  0.1216 -0.8452
  114POPC   H8Y15251   4.173   3.647   3.220 -0.9604 -0.0671 -1.7433
  114POPC   C3915252   4.388   3.702   3.243 -0.7150  0.1856  0.8709
  114POPC   H9X15253   4.457   3.737   3.164 -1.1327 -1.5262 -0.3024
  114POPC   H9Y15254   4.426   3.603   3.278 -2.5165 -0.0623  2.2503
  114POPC  C31015255   4.371   3.807   3.353 -0.3455  0.5561  0.5727
  114POPC  H10X15256   4.291   3.768   3.419  0.2251 -0.6605  0.5598
  114POPC  H10Y15257   4.358   3.909   3.311 -1.9154 -0.4260 -1.4192
  114POPC  C31115258   4.494   3.811   3.444  0.0459  0.2305  0.0611
  114POPC  H11X15259   4.583   3.856   3.394 -0.3995  0.4257 -0.5601
  114POPC  H11Y15260   4.516   3.705   3.468  1.1446  1.0178  2.7667
  114POPC  C31215261   4.475   3.880   3.579 -1.1718 -0.1068  0.0705
  114POPC  H12X15262   4.378   3.838   3.614  0.0905 -1.6204  1.9065
  114POPC  H12Y15263   4.470   3.990   3.565 -0.6390  0.1330  1.5955
  114POPC  C31315264   4.578   3.847   3.688  0.0764  0.2216 -0.9931
  114POPC  H13X15265   4.681   3.868   3.654  0.3411  1.7882  0.6617
  114POPC  H13Y15266   4.561   3.743   3.724 -0.3405  0.1924 -1.2687
  114POPC  C31415267   4.562   3.941   3.808  0.2600 -0.5122 -0.3857
  114POPC  H14X15268   4.570   4.045   3.768 -0.1130 -0.3795 -0.1127
  114POPC  H14Y15269   4.653   3.926   3.870 -0.0446  0.1062  0.2183
  114POPC  C31515270   4.432   3.935   3.887  0.1773 -0.9868 -0.5581
  114POPC  H15X15271   4.353   3.989   3.830 -0.0765  0.6677  1.2961
  114POPC  H15Y15272   4.437   3.986   3.986 -0.3788  1.6716 -1.8364
  114POPC  C31615273   4.385   3.795   3.926 -0.0720 -0.6370  0.4084
  114POPC  H16X15274   4.433   3.740   4.011  1.5065 -0.2832 -0.2319
  114POPC  H16Y15275   4.394   3.727   3.839  3.4620 -0.2550  0.3763
  114POPC  H16Z15276   4.276   3.798   3.945 -0.0122 -1.5168  0.9045
  115POPC     N15277   5.402   4.537   2.726 -0.0737  0.2609  0.0874
  115POPC   C1215278   5.265   4.598   2.708  0.1026  0.6692  0.1292
  115POPC  H12A15282   5.282   4.696   2.666  0.5612  0.5223 -0.0289
  115POPC  H12B15283   5.224   4.602   2.808  0.1365 -0.3455  0.1868
  115POPC   C1315279   5.467   4.490   2.598  0.1287 -0.4414  0.4419
  115POPC  H13A15284   5.543   4.419   2.627  1.0043  0.7039  1.0075
  115POPC  H13B15285   5.395   4.443   2.533 -0.0622 -0.6762  0.8256
  115POPC  H13C15286   5.514   4.576   2.551  2.0838 -1.0619  1.2189
  115POPC   C1415280   5.499   4.635   2.787 -0.0992  0.3123  0.0457
  115POPC  H14A15287   5.461   4.663   2.883 -2.4216  2.7150 -1.5038
  115POPC  H14B15288   5.597   4.590   2.794 -0.9221 -1.4226  0.7035
  115POPC  H14C15289   5.504   4.718   2.718 -0.5675 -1.0308 -1.6341
  115POPC   C1515281   5.388   4.419   2.819 -0.1898  0.0458 -0.2015
  115POPC  H15A15290   5.310   4.349   2.792 -1.2076  0.9050  0.5077
  115POPC  H15B15291   5.373   4.447   2.922  2.3552  1.6057 -0.2249
  115POPC  H15C15292   5.483   4.368   2.816 -0.4972 -0.6657  1.8260
  115POPC   C1115293   5.174   4.522   2.611  0.1683  0.2303  0.4092
  115POPC  H11A15294   5.208   4.527   2.506 -1.0683 -1.9335 -0.1136
  115POPC  H11B15295   5.072   4.566   2.608  0.3973  0.6962 -0.4866
  115POPC     P15296   5.049   4.295   2.558 -0.1074  0.5721 -0.0792
  115POPC   O1315297   5.116   4.169   2.518 -0.5755  0.3015 -0.0125
  115POPC   O1415298   4.978   4.381   2.461  0.1928  0.1903 -0.6383
  115POPC   O1215299   5.152   4.384   2.643  0.0829  0.1770  0.1103
  115POPC   O1115300   4.935   4.252   2.661  0.4090  0.2209  0.3548
  115POPC    C115301   4.897   4.342   2.766 -0.3484  0.1209  0.1694
  115POPC    HA15302   4.792   4.318   2.793 -0.5553  0.8699  0.0669
  115POPC    HB15303   4.898   4.445   2.723  1.2306  0.4232  0.9213
  115POPC    C215304   4.989   4.324   2.887  0.1532 -0.2678 -0.2690
  115POPC    HS15305   5.089   4.368   2.865  0.1531 -0.3082 -0.3497
  115POPC   O2115306   4.984   4.184   2.916 -0.2577 -0.1530  0.2198
  115POPC   C2115307   5.105   4.129   2.929 -0.0268  0.2370 -0.2622
  115POPC   O2215308   5.210   4.192   2.932 -0.4075  0.8512  0.2862
  115POPC   C2215309   5.091   3.980   2.956  0.1682  0.2935  0.1643
  115POPC   H2R15310   5.183   3.924   2.931 -0.4397  0.6430 -3.1296
  115POPC   H2S15311   5.015   3.939   2.885  0.8605  2.7807 -2.1116
  115POPC    C315312   4.940   4.383   3.021  0.2689  0.8527 -0.7143
  115POPC    HX15313   4.834   4.350   3.019  1.3228 -2.7489 -0.1550
  115POPC    HY15314   4.935   4.494   3.017 -1.8861  0.7984 -0.4707
  115POPC   O3115315   5.003   4.324   3.134 -0.0976  0.2519 -0.8213
  115POPC   C3115316   5.106   4.390   3.186 -0.0925 -0.0484 -0.4400
  115POPC   O3215317   5.157   4.491   3.139 -0.6156  0.4642  0.0701
  115POPC   C3215318   5.139   4.336   3.324  0.7382  0.2102 -0.5373
  115POPC   H2X15319   5.238   4.287   3.306 -0.4144 -1.2308 -3.1929
  115POPC   H2Y15320   5.069   4.256   3.356 -0.8765  2.0246  0.5901
  115POPC   C2315321   5.063   3.948   3.103 -0.4106  0.9104  0.1959
  115POPC   H3R15322   4.997   3.859   3.114 -1.3099  1.6314  0.6309
  115POPC   H3S15323   4.996   4.021   3.152 -0.6507  0.6380  0.2770
  115POPC   C2415324   5.188   3.919   3.187 -0.2701  0.0995 -0.2875
  115POPC   H4R15325   5.253   4.007   3.175  1.0211 -0.6902  0.7120
  115POPC   H4S15326   5.243   3.833   3.143  1.0918  0.3348  0.9196
  115POPC   C2515327   5.154   3.904   3.336 -0.0972  0.2688 -0.2319
  115POPC   H5R15328   5.142   4.009   3.370 -3.2880  0.7805 -2.7170
  115POPC   H5S15329   5.247   3.861   3.380 -0.8464  1.6884  2.8608
  115POPC   C2615330   5.035   3.829   3.396  0.4680 -0.2839  0.2088
  115POPC   H6R15331   5.034   3.721   3.368  1.3357  0.1911 -1.7404
  115POPC   H6S15332   4.941   3.866   3.350  1.8635  0.4349 -2.1323
  115POPC   C2715333   5.023   3.827   3.549  1.0818 -0.1721  0.2604
  115POPC   H7R15334   5.095   3.762   3.603 -1.0004 -2.3052  0.5516
  115POPC   H7S15335   4.924   3.785   3.578  0.6850 -0.5118 -1.4884
  115POPC   C2815336   5.023   3.966   3.611  0.6573  0.1230 -0.3896
  115POPC   H8R15337   4.942   4.021   3.560 -0.1612 -0.7382 -0.0224
  115POPC   H8S15338   5.123   4.007   3.584  0.3742  0.5747 -0.7480
  115POPC   C2915339   5.007   3.961   3.760 -0.1155  0.2626 -0.4662
  115POPC   H9115340   5.071   3.887   3.812 -1.1059 -0.9719 -0.9936
  115POPC  C21015341   4.933   4.042   3.837 -0.0572 -0.0460 -0.0813
  115POPC  H10115342   4.927   4.011   3.943 -1.1441  0.1433 -0.0787
  115POPC  C21115343   4.857   4.167   3.805  0.7698  0.2669 -0.8264
  115POPC  H11R15344   4.749   4.143   3.811  0.6350  1.1422  0.4837
  115POPC  H11S15345   4.884   4.198   3.702 -2.2026  0.7581 -1.5012
  115POPC  C21215346   4.892   4.275   3.908 -0.4029 -0.1459  0.0235
  115POPC  H12R15347   4.850   4.373   3.878 -1.8511 -0.9328 -0.5293
  115POPC  H12S15348   5.003   4.281   3.918 -0.6884  0.7722  3.0293
  115POPC  C21315349   4.846   4.258   4.052 -0.5425  0.0706  0.0052
  115POPC  H13R15350   4.900   4.170   4.094  0.9161  1.1392  0.3888
  115POPC  H13S15351   4.737   4.241   4.071 -0.3256  0.1915  1.4162
  115POPC  C21415352   4.894   4.373   4.140  0.0933  0.0793 -0.3510
  115POPC  H14R15353   4.845   4.464   4.101  0.0978  0.4178  0.4234
  115POPC  H14S15354   5.004   4.386   4.139 -0.1113  1.8125 -0.6914
  115POPC  C21515355   4.836   4.378   4.282  0.3500 -0.0750 -0.2394
  115POPC  H15R15356   4.725   4.388   4.274 -0.1178 -3.3019  1.3192
  115POPC  H15S15357   4.879   4.472   4.322  2.2017 -0.0538 -2.2318
  115POPC  C21615358   4.869   4.262   4.375  0.5081 -0.3121 -0.5940
  115POPC  H16R15359   4.975   4.229   4.379  0.1882 -1.7393 -2.6541
  115POPC  H16S15360   4.808   4.173   4.347  1.4392 -0.2580 -2.9517
  115POPC  C21715361   4.853   4.315   4.518 -0.3737 -0.8922 -0.4783
  115POPC  H17R15362   4.750   4.344   4.549  0.2584 -0.1398  0.9078
  115POPC  H17S15363   4.912   4.407   4.531 -1.0093 -0.6648  0.8859
  115POPC  C21815364   4.890   4.217   4.629 -0.4488 -0.3339  0.0388
  115POPC  H18R15365   4.798   4.162   4.658 -0.0346  0.0147  2.0922
  115POPC  H18S15366   4.898   4.282   4.719  2.0609 -0.3231 -0.1432
  115POPC  H18T15367   4.980   4.153   4.617 -0.1141 -0.2306  1.9094
  115POPC   C3315368   5.156   4.435   3.440  0.5722 -0.2059 -0.1540
  115POPC   H3X15369   5.063   4.497   3.438  0.3383 -0.5130  0.9108
  115POPC   H3Y15370   5.244   4.503   3.429  2.6017 -2.5281  1.2862
  115POPC   C3415371   5.165   4.360   3.572 -0.0726 -0.5661 -0.3121
  115POPC   H4X15372   5.247   4.285   3.572 -0.1068 -0.6230  0.7829
  115POPC   H4Y15373   5.067   4.309   3.583  1.0652 -2.4917  1.4048
  115POPC   C3515374   5.179   4.444   3.700  0.4905  0.0580 -0.7801
  115POPC   H5X15375   5.276   4.498   3.704  0.2061  0.4477  1.8937
  115POPC   H5Y15376   5.187   4.375   3.786 -0.2816  1.6133  0.5591
  115POPC   C3615377   5.085   4.563   3.719  0.3121 -0.1226 -0.5314
  115POPC   H6X15378   4.979   4.539   3.740  1.0109 -1.7192  1.3313
  115POPC   H6Y15379   5.097   4.630   3.631  0.2634  0.4060 -0.1420
  115POPC   C3715380   5.131   4.657   3.831  0.1546 -0.0320 -0.5426
  115POPC   H7X15381   5.221   4.717   3.809  0.6324 -0.4895  0.1170
  115POPC   H7Y15382   5.161   4.601   3.922  0.3560  1.6470  0.4415
  115POPC   C3815383   5.023   4.757   3.873  0.1804 -0.0846 -0.3532
  115POPC   H8X15384   4.985   4.804   3.780  1.5635 -0.3490 -1.0612
  115POPC   H8Y15385   5.070   4.834   3.937 -0.9556  0.2151  0.1485
  115POPC   C3915386   4.902   4.703   3.951  0.6092 -0.1949  0.2420
  115POPC   H9X15387   4.935   4.638   4.035  0.7344 -0.0603  0.2965
  115POPC   H9Y15388   4.837   4.647   3.881 -0.2980 -1.2804  1.9410
  115POPC  C31015389   4.817   4.815   4.012  0.0550 -0.6006  0.2147
  115POPC  H10X15390   4.769   4.873   3.931 -0.1459 -1.9305 -0.6436
  115POPC  H10Y15391   4.872   4.893   4.068 -1.8979  1.2690 -0.4332
  115POPC  C31115392   4.718   4.761   4.116 -0.1013 -0.0292  0.3664
  115POPC  H11X15393   4.780   4.729   4.203  2.9518  1.9089 -0.9969
  115POPC  H11Y15394   4.660   4.675   4.077  1.5259 -1.2141  0.4789
  115POPC  C31215395   4.623   4.871   4.163 -0.1164 -0.0382  0.3550
  115POPC  H12X15396   4.560   4.919   4.086  1.6356  0.2713 -0.9162
  115POPC  H12Y15397   4.679   4.958   4.203 -1.1904 -0.7277  3.5048
  115POPC  C31315398   4.534   4.814   4.274 -0.2648  0.1650  0.3409
  115POPC  H13X15399   4.602   4.776   4.352  0.8812  2.9746  0.7587
  115POPC  H13Y15400   4.480   4.722   4.242  0.9006 -0.3071 -0.3162
  115POPC  C31415401   4.428   4.907   4.333  0.0410  0.3964  0.5222
  115POPC  H14X15402   4.363   4.944   4.252  1.1817 -0.5441 -0.8561
  115POPC  H14Y15403   4.468   4.995   4.387  0.1420 -1.5179  3.7079
  115POPC  C31515404   4.333   4.834   4.429 -0.1613 -0.3185 -0.2210
  115POPC  H15X15405   4.276   4.917   4.474  0.3534 -0.2843  0.3748
  115POPC  H15Y15406   4.386   4.780   4.511  1.2405  0.1438 -0.8023
  115POPC  C31615407   4.225   4.745   4.367 -0.1420 -0.2767 -0.3161
  115POPC  H16X15408   4.161   4.695   4.443 -1.2331 -1.8004 -2.2030
  115POPC  H16Y15409   4.272   4.663   4.308 -0.4670  0.0520 -1.0405
  115POPC  H16Z15410   4.160   4.815   4.311 -0.1485  0.3339  0.4516
  116POPC     N15411   4.304   7.638   1.779 -0.1529 -0.5426 -0.4163
  116POPC   C1215412   4.299   7.579   1.918  0.1017  0.4428  0.0185
  116POPC  H12A15416   4.379   7.506   1.927 -0.6793 -0.5391 -0.8506
  116POPC  H12B15417   4.204   7.528   1.923  0.2276  0.1166 -0.8297
  116POPC   C1315413   4.276   7.530   1.677  0.1131 -0.4535 -0.5872
  116POPC  H13A15418   4.279   7.568   1.576  1.3349 -0.7680 -0.6791
  116POPC  H13B15419   4.354   7.457   1.691  0.7524  0.2162 -0.6784
  116POPC  H13C15420   4.186   7.478   1.707 -0.4954  0.7368 -0.2914
  116POPC   C1415414   4.202   7.748   1.758 -0.1191 -0.4144  0.0854
  116POPC  H14A15421   4.214   7.793   1.661  0.9155  1.2413  0.9471
  116POPC  H14B15422   4.106   7.699   1.765  0.3533 -1.4841 -0.7006
  116POPC  H14C15423   4.226   7.816   1.838  2.6595 -0.4046 -0.6878
  116POPC   C1515415   4.443   7.694   1.757 -0.0152 -0.5273  0.4748
  116POPC  H15A15424   4.476   7.730   1.853 -1.1487  0.5011  0.4958
  116POPC  H15B15425   4.436   7.761   1.672 -2.8495  0.8543  1.7206
  116POPC  H15C15426   4.515   7.618   1.729  2.2773  1.8520 -0.2347
  116POPC   C1115427   4.309   7.668   2.042  0.0949 -0.1641  0.4566
  116POPC  H11A15428   4.310   7.603   2.132 -2.3231 -1.9814 -0.7489
  116POPC  H11B15429   4.225   7.741   2.045  1.0071  0.8887  0.5022
  116POPC     P15430   4.459   7.857   2.145  0.4484  0.0155 -0.0697
  116POPC   O1315431   4.434   0.029   2.088 -0.5143 -0.1520 -0.1557
  116POPC   O1415432   4.592   7.831   2.204  0.2671  0.1934  0.4247
  116POPC   O1215433   4.431   7.742   2.037  0.1652 -0.2877  0.3255
  116POPC   O1115434   4.358   7.817   2.262  0.2611  0.1748 -0.1770
  116POPC    C115435   4.259   7.915   2.295  0.6141  0.5493 -0.2295
  116POPC    HA15436   4.185   7.862   2.358  0.1972  0.6853 -0.5994
  116POPC    HB15437   4.205   7.944   2.202  0.0718  0.5294  0.0784
  116POPC    C215438   4.308   0.074   2.377  0.5765  0.4690 -0.0281
  116POPC    HS15439   4.357   0.142   2.305 -1.1454 -0.5165 -2.1594
  116POPC   O2115440   4.398   0.034   2.481  0.3039 -0.1392 -0.0234
  116POPC   C2115441   4.515   0.098   2.474  0.3393 -0.2482 -0.4938
  116POPC   O2215442   4.538   0.202   2.415 -0.3086  0.1108 -0.1276
  116POPC   C2215443   4.613   0.024   2.565  0.0129 -0.1468 -0.0534
  116POPC   H2R15444   4.699   0.005   2.496  1.6973  0.3742  1.8468
  116POPC   H2S15445   4.570   7.888   2.594 -0.6711 -0.4199 -1.7980
  116POPC    C315446   4.191   0.147   2.445  0.5679  0.2348  0.2138
  116POPC    HX15447   4.132   0.063   2.487  0.1577 -0.8103 -2.3457
  116POPC    HY15448   4.126   0.187   2.364  0.7551  0.8442  0.3594
  116POPC   O3115449   4.232   0.243   2.543  0.1321 -0.0074  0.6334
  116POPC   C3115450   4.255   0.370   2.509 -0.1365 -0.0511  0.2786
  116POPC   O3215451   4.246   0.419   2.398  0.2715 -0.4895  0.0455
  116POPC   C3215452   4.340   0.429   2.621 -0.1904  0.1614  0.2064
  116POPC   H2X15453   4.448   0.403   2.617 -0.8321 -2.5850 -0.6791
  116POPC   H2Y15454   4.294   0.395   2.716 -1.4507 -0.6501 -0.6745
  116POPC   C2315455   4.668   0.113   2.676  0.6894 -0.1374 -0.3901
  116POPC   H3R15456   4.711   0.208   2.638 -0.7815  1.3142  1.4524
  116POPC   H3S15457   4.746   0.057   2.731  2.2211  2.2832 -0.0151
  116POPC   C2415458   4.562   0.147   2.781  0.8653 -0.3516 -0.1432
  116POPC   H4R15459   4.502   0.058   2.811 -0.0222  0.4763  0.5689
  116POPC   H4S15460   4.487   0.215   2.735  2.1555  0.2734 -1.3434
  116POPC   C2515461   4.620   0.222   2.901 -0.2002 -0.0699  0.2043
  116POPC   H5R15462   4.698   0.280   2.848 -0.8637 -1.0003 -1.8373
  116POPC   H5S15463   4.663   0.155   2.979 -0.3548 -0.0754  0.2864
  116POPC   C2615464   4.520   0.313   2.972 -0.5117 -0.6392  0.5030
  116POPC   H6R15465   4.428   0.259   3.003  0.1292 -1.5583  0.8149
  116POPC   H6S15466   4.504   0.394   2.898  2.8050 -0.9460 -0.6386
  116POPC   C2715467   4.573   0.376   3.101  0.4950 -0.0929 -0.1669
  116POPC   H7R15468   4.628   0.298   3.158  0.0703  0.0381  0.4311
  116POPC   H7S15469   4.480   0.409   3.153 -0.6225  0.0679 -2.2067
  116POPC   C2815470   4.660   0.502   3.099 -0.5773  0.6553 -0.1073
  116POPC   H8R15471   4.601   0.568   3.031 -0.9284  0.3922 -0.0638
  116POPC   H8S15472   4.763   0.496   3.057 -0.5210 -0.3450  0.1604
  116POPC   C2915473   4.662   0.571   3.232 -0.6131  0.5081 -0.0310
  116POPC   H9115474   4.570   0.614   3.273  0.7560  2.3549  1.1788
  116POPC  C21015475   4.768   0.589   3.313 -0.5080 -0.8838  0.1714
  116POPC  H10115476   4.748   0.636   3.410  1.2757 -0.2184  0.2402
  116POPC  C21115477   4.909   0.546   3.285  0.0190  0.5498  0.5987
  116POPC  H11R15478   4.976   0.602   3.354  0.4362  0.8340 -0.0350
  116POPC  H11S15479   4.938   0.595   3.190  0.8311 -1.7564 -0.3738
  116POPC  C21215480   4.936   0.396   3.287  0.5795  0.6492  0.7383
  116POPC  H12R15481   5.042   0.373   3.266  0.2944  0.6924 -0.8251
  116POPC  H12S15482   4.874   0.357   3.203 -0.5028  1.6962  1.0303
  116POPC  C21315483   4.904   0.307   3.408 -0.1141  0.2338  0.2541
  116POPC  H13R15484   4.954   0.208   3.411  0.2963  0.3334 -2.0937
  116POPC  H13S15485   4.796   0.282   3.412  0.0717 -0.3034  3.7614
  116POPC  C21415486   4.935   0.375   3.542 -0.0982  0.1124  0.3119
  116POPC  H14R15487   4.869   0.464   3.551  0.3614  0.4065  0.8068
  116POPC  H14S15488   5.044   0.396   3.532 -0.0538 -0.5963 -0.8342
  116POPC  C21515489   4.899   0.290   3.663  0.4675 -0.6564 -0.0503
  116POPC  H15R15490   4.962   0.200   3.648 -0.2208 -1.3568  1.0932
  116POPC  H15S15491   4.794   0.254   3.661  0.3494 -0.3088 -0.0921
  116POPC  C21615492   4.928   0.346   3.803  0.2350 -0.0265 -0.2497
  116POPC  H16R15493   5.037   0.348   3.823  0.0379  0.6547  0.7833
  116POPC  H16S15494   4.871   0.285   3.877  1.6253  1.8974  2.4705
  116POPC  C21715495   4.875   0.489   3.809  0.0604 -0.1092  0.2521
  116POPC  H17R15496   4.938   0.554   3.744 -1.0343  0.0211 -0.6964
  116POPC  H17S15497   4.898   0.533   3.908 -0.7777  2.3077 -0.5714
  116POPC  C21815498   4.731   0.525   3.772 -0.1082 -0.3406  0.6848
  116POPC  H18R15499   4.668   0.465   3.841  0.5432  0.1530  1.7097
  116POPC  H18S15500   4.708   0.527   3.663 -0.3586  1.3393  0.7593
  116POPC  H18T15501   4.700   0.629   3.794  1.0026  0.3811 -1.0420
  116POPC   C3315502   4.316   0.579   2.638  0.3064  0.2872 -0.1873
  116POPC   H3X15503   4.225   0.612   2.584 -0.3652  2.4279  2.1720
  116POPC   H3Y15504   4.403   0.628   2.590 -0.5129  2.6171  0.6616
  116POPC   C3415505   4.313   0.626   2.784  0.4857 -0.7244  0.1466
  116POPC   H4X15506   4.397   0.577   2.838  1.1309  0.4099  0.1958
  116POPC   H4Y15507   4.219   0.581   2.822 -0.6851  1.6485  0.1083
  116POPC   C3515508   4.302   0.777   2.803 -0.4172 -0.7532 -0.1488
  116POPC   H5X15509   4.213   0.821   2.752 -0.8229  0.3737  1.5019
  116POPC   H5Y15510   4.400   0.819   2.771 -1.4243  0.8832 -1.1809
  116POPC   C3615511   4.297   0.792   2.955  0.0271 -0.1536 -0.1894
  116POPC   H6X15512   4.371   0.727   3.006 -1.3968 -0.3833  1.6242
  116POPC   H6Y15513   4.199   0.767   3.002  0.9563 -1.5246  1.0540
  116POPC   C3715514   4.332   0.936   2.993  0.5671 -0.1983 -0.5117
  116POPC   H7X15515   4.411   0.975   2.925  1.4311  1.2474  1.3060
  116POPC   H7Y15516   4.365   0.938   3.099 -1.1766  0.5251  0.0460
  116POPC   C3815517   4.212   1.029   2.970  0.4098 -0.1996  0.3143
  116POPC   H8X15518   4.136   1.006   3.049 -0.8662  0.0578 -0.8161
  116POPC   H8Y15519   4.174   0.999   2.870 -0.7994  0.2082  0.6444
  116POPC   C3915520   4.248   1.177   2.983 -0.2313 -0.0512  0.4365
  116POPC   H9X15521   4.312   1.208   2.898 -1.6313  0.5762 -0.3914
  116POPC   H9Y15522   4.311   1.199   3.072 -0.6146  1.2689  0.3937
  116POPC  C31015523   4.124   1.265   2.994 -0.4980 -0.3328 -0.3304
  116POPC  H10X15524   4.049   1.224   2.922 -2.5171  2.4424  0.0759
  116POPC  H10Y15525   4.146   1.373   2.980 -1.6173  0.1319  1.4002
  116POPC  C31115526   4.051   1.269   3.128 -0.2749 -0.0088 -0.2186
  116POPC  H11X15527   4.129   1.289   3.205 -0.8660 -2.7486  1.1518
  116POPC  H11Y15528   4.008   1.168   3.146 -0.9880  0.4925  0.9300
  116POPC  C31215529   3.944   1.378   3.139  0.1170  0.3694 -0.1439
  116POPC  H12X15530   4.003   1.472   3.146  0.9662  0.0347 -2.3191
  116POPC  H12Y15531   3.887   1.361   3.233 -1.0196 -0.8758 -1.0422
  116POPC  C31315532   3.847   1.380   3.021  0.0747  0.6990 -0.1035
  116POPC  H13X15533   3.817   1.276   2.999 -0.7245  1.2248 -1.5785
  116POPC  H13Y15534   3.892   1.417   2.926 -2.8299  0.2005 -1.7091
  116POPC  C31415535   3.723   1.467   3.041  0.1453  0.8008 -0.1012
  116POPC  H14X15536   3.674   1.484   2.943  1.3283 -1.2073 -1.0817
  116POPC  H14Y15537   3.766   1.561   3.081  1.4930 -0.8135  2.3995
  116POPC  C31515538   3.614   1.405   3.130  0.4689  0.5853  0.1457
  116POPC  H15X15539   3.662   1.362   3.220  2.2882  1.6769 -0.2621
  116POPC  H15Y15540   3.576   1.318   3.072  1.0489 -0.8005  1.8052
  116POPC  C31615541   3.500   1.495   3.177  0.2708  0.4556 -0.0890
  116POPC  H16X15542   3.540   1.579   3.236 -2.5710  0.4188  2.0108
  116POPC  H16Y15543   3.440   1.435   3.249 -0.7041  3.8052  2.0045
  116POPC  H16Z15544   3.436   1.536   3.096 -0.0239  1.1086  0.4701
  117POPC     N15545   6.802   4.492   2.382 -0.2349  0.0865  0.6709
  117POPC   C1215546   6.855   4.398   2.488 -0.1759 -0.4132  0.1990
  117POPC  H12A15550   6.822   4.297   2.469  0.2671 -0.6098  0.4812
  117POPC  H12B15551   6.816   4.424   2.585 -1.9365  1.3864 -0.9460
  117POPC   C1315547   6.830   4.636   2.420  0.1837  0.1838  0.0041
  117POPC  H13A15552   6.821   4.696   2.331  1.0368 -2.0739 -1.6627
  117POPC  H13B15553   6.769   4.669   2.503 -1.8598  1.7984 -2.0719
  117POPC  H13C15554   6.934   4.639   2.450  0.1799  1.4614 -0.1151
  117POPC   C1415548   6.871   4.472   2.249 -0.2484 -0.4655  0.7450
  117POPC  H14A15555   6.869   4.377   2.199  0.3205  0.5828 -1.3504
  117POPC  H14B15556   6.844   4.549   2.177 -1.2865 -0.4466  1.1423
  117POPC  H14C15557   6.977   4.483   2.266 -0.2303  0.1889  0.2557
  117POPC   C1515549   6.654   4.467   2.369 -0.0998 -0.4632  0.1766
  117POPC  H15A15558   6.619   4.529   2.288  0.3067  1.4503  1.4504
  117POPC  H15B15559   6.619   4.500   2.466  1.3996 -0.0819  0.5996
  117POPC  H15C15560   6.618   4.365   2.358  0.6168 -0.8246  1.1070
  117POPC   C1115561   7.006   4.391   2.508 -0.0579  0.1712 -0.4695
  117POPC  H11A15562   7.044   4.343   2.415 -2.3971 -1.3891 -0.6597
  117POPC  H11B15563   7.031   4.337   2.602 -3.3904 -1.0249 -0.1886
  117POPC     P15564   7.222   4.514   2.545 -0.0274  0.1628 -0.2980
  117POPC   O1315565   7.300   4.577   2.436  0.1533  0.0651 -0.2254
  117POPC   O1415566   7.265   4.381   2.596 -0.1930  0.1965 -0.0698
  117POPC   O1215567   7.067   4.520   2.508  0.0625  0.1146 -0.6805
  117POPC   O1115568   7.233   4.619   2.666 -1.1876 -0.3770  0.2882
  117POPC    C115569   7.198   4.755   2.641 -0.0781 -0.2565 -0.6956
  117POPC    HA15570   7.166   4.787   2.743  0.0384  0.3144 -0.8346
  117POPC    HB15571   7.112   4.760   2.571 -0.8295  0.6169  0.2600
  117POPC    C215572   7.314   4.850   2.605 -0.0912 -0.0915 -0.3127
  117POPC    HS15573   7.336   4.847   2.496 -2.2533 -1.1948 -0.7511
  117POPC   O2115574   7.424   4.800   2.682 -0.1893  0.1185 -0.0374
  117POPC   C2115575   7.542   4.819   2.624  0.0117 -0.1306  0.2905
  117POPC   O2215576   7.569   4.904   2.541 -0.6396  0.0194  0.2341
  117POPC   C2215577   7.649   4.725   2.679  0.1717  0.3094  0.7404
  117POPC   H2R15578   7.707   4.682   2.595  0.3648  2.1701 -0.0976
  117POPC   H2S15579   7.587   4.645   2.726  0.6858 -2.1968 -2.6394
  117POPC    C315580   7.280   4.991   2.656 -0.0223 -0.2011  0.0370
  117POPC    HX15581   7.183   5.017   2.609  0.6913  2.3406 -0.1154
  117POPC    HY15582   7.349   5.069   2.618 -1.8071  1.4763  0.1657
  117POPC   O3115583   7.261   4.997   2.798 -0.6058  0.6317 -0.0794
  117POPC   C3115584   7.372   5.033   2.862 -0.4853  0.5182 -0.2244
  117POPC   O3215585   7.480   5.055   2.810  0.1255 -0.5373  0.5631
  117POPC   C3215586   7.323   5.037   3.006 -0.1146  0.0352 -0.0811
  117POPC   H2X15587   7.222   5.083   3.010 -0.2138 -0.1636 -0.2845
  117POPC   H2Y15588   7.393   5.104   3.060 -1.0387 -0.8947  2.3628
  117POPC   C2315589   7.748   4.806   2.763  0.6079  0.1950  0.3334
  117POPC   H3R15590   7.706   4.869   2.844 -1.2355 -0.1397 -0.3252
  117POPC   H3S15591   7.802   4.878   2.697  1.5722 -1.0866 -0.3118
  117POPC   C2415592   7.857   4.725   2.834  0.1569 -0.4964  0.2374
  117POPC   H4R15593   7.923   4.686   2.754  0.3796  0.9071 -0.2703
  117POPC   H4S15594   7.819   4.633   2.884 -0.1296 -0.7061 -0.3561
  117POPC   C2515595   7.945   4.811   2.923 -0.1533 -0.1853  0.2427
  117POPC   H5R15596   0.003   4.907   2.871  1.9895 -1.6991 -1.8019
  117POPC   H5S15597   0.083   4.768   2.945  0.0367  0.0340  0.0044
  117POPC   C2615598   7.882   4.852   3.056 -0.4118  0.3067 -0.0294
  117POPC   H6R15599   7.856   4.752   3.098 -0.9394  0.6353  0.4313
  117POPC   H6S15600   7.797   4.924   3.053 -1.4927 -0.9313  0.3462
  117POPC   C2715601   0.023   4.912   3.152  0.1715  0.0727 -0.4685
  117POPC   H7R15602   0.060   5.011   3.119  0.2670 -0.1472 -1.0340
  117POPC   H7S15603   0.109   4.844   3.171  1.3493  1.2971 -1.2770
  117POPC   C2815604   7.930   4.937   3.292 -0.1921  1.0664 -0.7708
  117POPC   H8R15605   7.908   4.835   3.329 -2.0252  0.9499 -2.1524
  117POPC   H8S15606   7.837   4.994   3.274 -0.8225 -0.3234 -1.9935
  117POPC   C2915607   0.058   4.998   3.396  0.0246  0.0835 -0.3402
  117POPC   H9115608   0.138   5.058   3.350 -0.1560  0.7065  0.1467
  117POPC  C21015609   0.050   4.993   3.530  0.4712  0.0346 -0.3148
  117POPC  H10115610   0.133   5.032   3.590  1.5736 -1.7325 -0.6569
  117POPC  C21115611   7.899   4.918   3.593 -0.2266  0.7970 -0.5650
  117POPC  H11R15612   7.876   4.826   3.534  0.6637  0.5161 -0.4857
  117POPC  H11S15613   7.798   4.964   3.596  0.0849  1.5468 -1.4894
  117POPC  C21215614   7.946   4.902   3.738  0.0180 -0.7631 -0.8051
  117POPC  H12R15615   7.961   5.001   3.785 -3.0549 -1.1015  1.0573
  117POPC  H12S15616   0.083   4.852   3.738 -0.0375 -0.9574 -0.5736
  117POPC  C21315617   7.848   4.813   3.815  0.2036  0.1020  0.4356
  117POPC  H13R15618   7.850   4.712   3.769 -0.7658  1.2292 -2.1744
  117POPC  H13S15619   7.752   4.867   3.800  1.8137  2.8053 -0.5094
  117POPC  C21415620   7.881   4.814   3.964  0.5701 -0.0781  0.3551
  117POPC  H14R15621   7.957   4.740   3.998  1.2190  0.9623  1.1782
  117POPC  H14S15622   7.780   4.790   4.002  0.5192  0.2945  0.4605
  117POPC  C21515623   7.907   4.954   4.021 -0.1244  0.1678  0.0740
  117POPC  H15R15624   7.835   5.032   3.990 -0.0992 -0.3478 -1.3524
  117POPC  H15S15625   0.043   4.979   3.973 -0.1453 -1.0945 -0.7622
  117POPC  C21615626   7.941   4.960   4.170 -0.0674  0.9150  0.0301
  117POPC  H16R15627   0.044   4.874   4.196 -0.5085  0.4072 -0.4442
  117POPC  H16S15628   7.852   4.928   4.229 -1.2234  1.2970 -1.4677
  117POPC  C21715629   0.041   5.095   4.205  0.6151  0.5644  0.2476
  117POPC  H17R15630   0.148   5.103   4.176  1.2339 -3.7729  1.0444
  117POPC  H17S15631   0.034   5.085   4.316 -3.3426  3.5404  0.3694
  117POPC  C21815632   7.928   5.223   4.171 -0.0211  0.1583  0.0319
  117POPC  H18R15633   7.936   5.233   4.061 -0.5088 -3.2866 -0.3453
  117POPC  H18S15634   0.025   5.311   4.206 -1.7855  2.0738 -1.5961
  117POPC  H18T15635   7.820   5.234   4.199 -0.1277  0.2647 -0.4232
  117POPC   C3315636   7.343   4.900   3.070 -0.3097 -0.1759 -0.4684
  117POPC   H3X15637   7.449   4.869   3.059 -0.2918 -0.1662 -0.3299
  117POPC   H3Y15638   7.292   4.823   3.009 -0.2191 -0.3136 -0.3710
  117POPC   C3415639   7.309   4.898   3.219 -0.1381 -0.1527 -0.4283
  117POPC   H4X15640   7.203   4.932   3.222 -0.1059 -0.2013  3.0443
  117POPC   H4Y15641   7.367   4.974   3.276  0.5276 -0.7062 -0.3704
  117POPC   C3515642   7.333   4.762   3.285  0.3318  0.1376  0.0057
  117POPC   H5X15643   7.432   4.718   3.258  1.4021  1.6217  1.4409
  117POPC   H5Y15644   7.262   4.693   3.235 -2.2389  2.7876 -0.1290
  117POPC   C3615645   7.312   4.761   3.436  0.4400  0.4073  0.0237
  117POPC   H6X15646   7.292   4.657   3.471 -0.9464  0.3246 -0.9495
  117POPC   H6Y15647   7.226   4.828   3.457  2.1618  2.3358  1.0160
  117POPC   C3715648   7.440   4.811   3.503  0.6035 -0.0747  0.0722
  117POPC   H7X15649   7.468   4.899   3.442 -1.3852  0.6384  0.1632
  117POPC   H7Y15650   7.513   4.728   3.489  2.8369  1.1037  4.0326
  117POPC   C3815651   7.420   4.852   3.649  0.2687  0.3167 -0.0861
  117POPC   H8X15652   7.335   4.923   3.660 -0.8527 -1.2019  1.3524
  117POPC   H8Y15653   7.513   4.900   3.686  2.9922 -3.0701 -2.2361
  117POPC   C3915654   7.394   4.731   3.738  0.3709  0.0970 -0.3541
  117POPC   H9X15655   7.476   4.657   3.730 -1.0380 -1.4305 -1.0601
  117POPC   H9Y15656   7.294   4.687   3.716 -0.3153  1.7368 -0.6287
  117POPC  C31015657   7.397   4.772   3.886  0.1341  0.3398 -0.4158
  117POPC  H10X15658   7.297   4.808   3.917  0.4902  1.3799 -0.4649
  117POPC  H10Y15659   7.459   4.860   3.910 -0.2404  0.3566  0.4947
  117POPC  C31115660   7.449   4.660   3.976  0.4439  0.1815 -0.7900
  117POPC  H11X15661   7.421   4.694   4.078  0.7789  2.1930 -1.3475
  117POPC  H11Y15662   7.559   4.642   3.979  0.6849  1.4385 -1.5723
  117POPC  C31215663   7.390   4.521   3.952 -0.4833  0.4128  0.0972
  117POPC  H12X15664   7.426   4.479   3.855  0.5688  2.2216 -0.3265
  117POPC  H12Y15665   7.280   4.533   3.957 -0.4220  0.8043  0.4879
  117POPC  C31315666   7.434   4.411   4.049 -0.2920  0.5042  0.1155
  117POPC  H13X15667   7.404   4.317   3.998 -0.6725 -0.3378  1.8677
  117POPC  H13Y15668   7.370   4.431   4.138  0.9210 -0.4357  1.2074
  117POPC  C31415669   7.578   4.403   4.099 -0.3884 -0.1308  0.2927
  117POPC  H14X15670   7.587   4.308   4.156 -1.9845 -0.4296  0.0649
  117POPC  H14Y15671   7.597   4.495   4.157 -1.8741 -0.4686  1.3329
  117POPC  C31515672   7.682   4.387   3.988 -0.5242  0.4033  0.0837
  117POPC  H15X15673   7.779   4.353   4.030 -1.4486 -1.3986  0.8365
  117POPC  H15Y15674   7.698   4.486   3.941 -0.3883  0.5801  0.4943
  117POPC  C31615675   7.650   4.277   3.886  0.6465  0.7221 -0.6319
  117POPC  H16X15676   7.586   4.333   3.815 -1.6603 -1.6432 -0.4859
  117POPC  H16Y15677   7.596   4.192   3.931 -0.5099  0.5616 -2.3036
  117POPC  H16Z15678   7.745   4.256   3.831  2.0075  0.4230  1.7449
  118POPC     N15679   2.058   6.529   1.847 -0.0825 -0.1947 -0.0741
  118POPC   C1215680   2.181   6.541   1.933 -0.3532  0.3974  0.2342
  118POPC  H12A15684   2.257   6.599   1.883  0.9915 -2.6986 -1.4099
  118POPC  H12B15685   2.223   6.442   1.923  0.8555  1.0451 -1.2819
  118POPC   C1315681   2.099   6.546   1.703  0.5061 -0.2078  0.0923
  118POPC  H13A15686   2.169   6.467   1.679 -0.8677 -1.5913  0.5850
  118POPC  H13B15687   2.017   6.538   1.634  0.8064  0.1547 -0.3077
  118POPC  H13C15688   2.146   6.643   1.699 -1.1468  0.5823 -0.4972
  118POPC   C1415682   1.989   6.396   1.858 -0.1907 -0.1476 -0.1839
  118POPC  H14A15689   1.906   6.387   1.788 -1.0270 -0.1230  0.7945
  118POPC  H14B15690   2.056   6.315   1.833 -1.6568 -1.3144 -0.4822
  118POPC  H14C15691   1.964   6.383   1.962  1.0746  0.5709  0.2052
  118POPC   C1515683   1.957   6.636   1.883  0.1493  0.0157 -0.0520
  118POPC  H15A15692   1.865   6.621   1.829  0.2579  1.3074 -0.6063
  118POPC  H15B15693   1.997   6.734   1.860  0.6986 -0.1389  0.2296
  118POPC  H15C15694   1.945   6.624   1.990 -0.1746  1.9662  0.1497
  118POPC   C1115695   2.174   6.573   2.083  0.3359 -0.3765  0.4347
  118POPC  H11A15696   2.169   6.682   2.067 -0.0934 -0.5843 -0.9466
  118POPC  H11B15697   2.269   6.551   2.136  0.6011 -0.4029 -0.0490
  118POPC     P15698   2.057   6.386   2.213  0.0973 -0.1055  0.2980
  118POPC   O1315699   2.084   6.283   2.110 -0.6476 -0.3000  0.2992
  118POPC   O1415700   1.925   6.371   2.276  0.1234 -0.2724  0.3138
  118POPC   O1215701   2.054   6.533   2.150  0.1012 -0.1753  0.1342
  118POPC   O1115702   2.176   6.376   2.319  0.4492  0.2136 -0.0627
  118POPC    C115703   2.187   6.485   2.412  0.1701  0.2311 -0.0509
  118POPC    HA15704   2.091   6.541   2.412 -0.8685 -1.4674  0.8356
  118POPC    HB15705   2.267   6.555   2.383 -0.7501  1.3794  0.1456
  118POPC    C215706   2.203   6.438   2.558 -0.1313 -0.0113 -0.0933
  118POPC    HS15707   2.312   6.432   2.578 -0.3728  2.7712  2.3720
  118POPC   O2115708   2.142   6.311   2.578 -0.4111  0.1067 -0.1964
  118POPC   C2115709   2.213   6.201   2.550 -0.3107  0.1928 -0.2772
  118POPC   O2215710   2.325   6.205   2.502 -0.1261 -0.2946  0.1070
  118POPC   C2215711   2.142   6.079   2.606 -0.0584 -0.0198 -0.4223
  118POPC   H2R15712   2.140   6.001   2.527  0.4229 -0.5750  0.1026
  118POPC   H2S15713   2.038   6.108   2.629  0.4175  0.9984  0.4930
  118POPC    C315714   2.152   6.542   2.659  0.1256 -0.0317  0.0579
  118POPC    HX15715   2.045   6.572   2.653 -0.0495 -0.7660 -0.6624
  118POPC    HY15716   2.222   6.627   2.649  1.3819 -1.1116 -0.4733
  118POPC   O3115717   2.184   6.504   2.793 -0.2332  0.1014  0.1808
  118POPC   C3115718   2.085   6.440   2.855  0.0769  0.1415  0.7243
  118POPC   O3215719   1.973   6.423   2.810  0.3517 -0.6340  0.3198
  118POPC   C3215720   2.148   6.380   2.980  0.1678 -0.9261  0.1653
  118POPC   H2X15721   2.251   6.418   2.989 -0.8747  1.6154  1.7690
  118POPC   H2Y15722   2.139   6.269   2.972 -1.6671 -0.7723 -0.2660
  118POPC   C2315723   2.218   6.023   2.727 -0.0619  0.1422 -0.3446
  118POPC   H3R15724   2.194   6.088   2.813  0.1995 -1.2673  0.8219
  118POPC   H3S15725   2.326   6.036   2.703  0.1224  1.9590  1.3815
  118POPC   C2415726   2.164   5.891   2.782  0.0914  0.1684 -0.1319
  118POPC   H4R15727   2.188   5.812   2.707  1.2015  0.2786  0.0867
  118POPC   H4S15728   2.054   5.898   2.785 -0.1187 -1.9200 -1.5117
  118POPC   C2515729   2.209   5.859   2.925 -0.0472 -0.2035 -0.1712
  118POPC   H5R15730   2.158   5.765   2.955  0.4756 -0.2206  0.6688
  118POPC   H5S15731   2.187   5.932   3.006  0.9371 -0.9504  0.7850
  118POPC   C2615732   2.360   5.838   2.929 -0.0688 -0.2821  0.2040
  118POPC   H6R15733   2.412   5.936   2.918  2.1826 -1.4862 -0.3424
  118POPC   H6S15734   2.389   5.780   2.838  1.4719  1.1300 -0.2327
  118POPC   C2715735   2.416   5.774   3.057  0.0627 -0.5056  0.0355
  118POPC   H7R15736   2.398   5.837   3.146 -1.5399 -0.7877 -0.0772
  118POPC   H7S15737   2.526   5.779   3.046 -0.1641 -1.2591 -3.1175
  118POPC   C2815738   2.370   5.633   3.096 -0.1420 -0.3801  0.2471
  118POPC   H8R15739   2.446   5.568   3.048  0.0050  0.4808 -0.7246
  118POPC   H8S15740   2.273   5.615   3.044 -0.3187  1.1994 -0.0058
  118POPC   C2915741   2.380   5.622   3.246  0.2524 -0.7254  0.1929
  118POPC   H9115742   2.456   5.690   3.287  0.3008 -0.6984  0.0581
  118POPC  C21015743   2.294   5.566   3.331  0.2640 -0.5205  0.3388
  118POPC  H10115744   2.305   5.582   3.440 -1.1044  1.2841  0.2459
  118POPC  C21115745   2.166   5.501   3.287  0.2776 -0.3651  0.0748
  118POPC  H11R15746   2.185   5.412   3.224  0.3551  0.0091 -0.4428
  118POPC  H11S15747   2.113   5.576   3.223 -0.1578 -1.4630 -0.8604
  118POPC  C21215748   2.072   5.479   3.406 -0.3538  0.0843 -0.3353
  118POPC  H12R15749   2.081   5.577   3.459  2.5931 -2.0632  3.3552
  118POPC  H12S15750   2.121   5.396   3.461 -2.0395 -1.5103 -1.2236
  118POPC  C21315751   1.934   5.424   3.373 -0.5212  0.2391  0.1023
  118POPC  H13R15752   1.946   5.333   3.311  0.4160  0.7355 -0.4505
  118POPC  H13S15753   1.872   5.495   3.314 -0.3054 -1.3312 -2.0759
  118POPC  C21415754   1.859   5.384   3.500  0.1101  0.1255  0.4372
  118POPC  H14R15755   1.751   5.386   3.476  0.5565 -1.5484 -1.8714
  118POPC  H14S15756   1.866   5.465   3.576 -1.4221  0.8498 -0.1881
  118POPC  C21515757   1.901   5.249   3.560 -0.0425 -0.3550 -0.5300
  118POPC  H15R15758   2.009   5.253   3.585 -0.8054  0.5413  2.9582
  118POPC  H15S15759   1.883   5.187   3.469  0.6939  1.6149 -2.0563
  118POPC  C21615760   1.816   5.197   3.676  0.2413  0.4215  0.0340
  118POPC  H16R15761   1.877   5.117   3.724  0.4278 -0.0522 -0.9637
  118POPC  H16S15762   1.712   5.168   3.649  0.5417 -0.0450 -0.6560
  118POPC  C21715763   1.802   5.300   3.788  0.0647  0.1973  0.2195
  118POPC  H17R15764   1.749   5.389   3.747  0.2886  0.2598  0.0665
  118POPC  H17S15765   1.903   5.334   3.821  2.0567 -2.6563 -2.5590
  118POPC  C21815766   1.720   5.251   3.907 -0.0953 -0.2094 -0.0562
  118POPC  H18R15767   1.612   5.244   3.883 -0.4746  1.0689  1.1847
  118POPC  H18S15768   1.727   5.323   3.991 -0.0412  1.4153 -1.4189
  118POPC  H18T15769   1.759   5.154   3.944 -2.1689 -0.6395  1.0731
  118POPC   C3315770   2.078   6.439   3.102 -0.4316 -0.0940 -0.5687
  118POPC   H3X15771   1.985   6.382   3.122  0.0262 -1.5616 -2.5327
  118POPC   H3Y15772   2.056   6.545   3.077 -1.9334 -0.6705 -1.7386
  118POPC   C3415773   2.169   6.447   3.225 -0.6683 -0.1047 -0.3920
  118POPC   H4X15774   2.252   6.513   3.194 -2.4505  1.6417 -1.5245
  118POPC   H4Y15775   2.216   6.348   3.246 -2.2701 -0.7289  0.3598
  118POPC   C3515776   2.107   6.519   3.345  0.4993  0.4047 -0.0830
  118POPC   H5X15777   2.001   6.485   3.355  1.1512 -1.5530  0.4136
  118POPC   H5Y15778   2.105   6.628   3.325  1.4313  0.4155 -0.1027
  118POPC   C3615779   2.180   6.491   3.476 -0.0994  0.7027  0.3196
  118POPC   H6X15780   2.273   6.552   3.479  0.8484 -0.6556 -0.7700
  118POPC   H6Y15781   2.212   6.385   3.480  1.0440  0.9068 -2.2931
  118POPC   C3715782   2.086   6.540   3.586 -0.2103 -0.1831  0.6172
  118POPC   H7X15783   1.999   6.474   3.604 -0.5005  0.7672  2.8902
  118POPC   H7Y15784   2.048   6.638   3.553  0.1374  0.4069  1.9489
  118POPC   C3815785   2.151   6.560   3.723  0.0633  0.6314  0.3666
  118POPC   H8X15786   2.221   6.647   3.726  2.3460 -1.1461 -0.4691
  118POPC   H8Y15787   2.215   6.471   3.741 -0.6307 -0.2898 -1.6134
  118POPC   C3915788   2.045   6.583   3.832 -0.2405  0.3680  0.1247
  118POPC   H9X15789   2.040   6.496   3.901  1.1646  1.8738  2.1849
  118POPC   H9Y15790   1.946   6.600   3.785  0.0372 -0.1824 -0.6904
  118POPC  C31015791   2.052   6.706   3.922  0.0107 -0.0404  0.6644
  118POPC  H10X15792   2.074   6.792   3.856  0.6195  0.0587  0.9948
  118POPC  H10Y15793   2.141   6.713   3.988  0.4834 -1.4201  0.1915
  118POPC  C31115794   1.928   6.729   4.009 -0.3831  0.3393  0.0024
  118POPC  H11X15795   1.835   6.752   3.952 -0.8253  1.5437  1.1788
  118POPC  H11Y15796   1.945   6.816   4.077  0.8952  0.6474 -0.6850
  118POPC  C31215797   1.891   6.609   4.096 -0.1346  0.2453 -0.0210
  118POPC  H12X15798   1.895   6.519   4.031  1.3011  1.4330 -1.6363
  118POPC  H12Y15799   1.789   6.619   4.140  0.0706 -0.7884  0.7015
  118POPC  C31315800   1.978   6.595   4.221 -0.0570 -0.3738 -0.1444
  118POPC  H13X15801   2.084   6.593   4.188 -0.2691  1.3446 -0.9820
  118POPC  H13Y15802   1.964   6.494   4.266 -0.1127 -0.7966 -1.1010
  118POPC  C31415803   1.976   6.705   4.327  0.6734 -0.0992 -0.4098
  118POPC  H14X15804   2.008   6.806   4.294  1.0642 -0.2092 -0.3627
  118POPC  H14Y15805   2.045   6.679   4.410  1.8749  0.6655 -1.1690
  118POPC  C31515806   1.838   6.742   4.382  0.5050 -0.6648 -0.4542
  118POPC  H15X15807   1.774   6.790   4.305  0.4691 -0.0062 -0.0183
  118POPC  H15Y15808   1.857   6.824   4.454  0.2876 -1.2456  0.2728
  118POPC  C31615809   1.771   6.622   4.449 -0.2252 -0.0648 -0.1029
  118POPC  H16X15810   1.830   6.590   4.537  0.2136 -0.4140 -0.5228
  118POPC  H16Y15811   1.761   6.543   4.371 -2.7892 -1.0033  1.1095
  118POPC  H16Z15812   1.669   6.648   4.486 -0.9227 -0.4515 -1.6753
  119POPC     N15813   6.496   7.263   2.541 -0.2028 -0.0306 -0.1360
  119POPC   C1215814   6.387   7.181   2.606  0.4630 -0.9018 -0.0996
  119POPC  H12A15818   6.300   7.243   2.620  0.5779 -0.8039  0.1857
  119POPC  H12B15819   6.427   7.156   2.703 -0.5536 -0.3418  0.4778
  119POPC   C1315815   6.441   7.324   2.414 -0.6323  0.0408  0.0862
  119POPC  H13A15820   6.345   7.368   2.438 -2.3302 -2.2966 -2.1633
  119POPC  H13B15821   6.499   7.403   2.370  0.7746 -0.3452  1.1946
  119POPC  H13C15822   6.427   7.243   2.344  0.4108 -0.0011 -0.0786
  119POPC   C1415816   6.545   7.377   2.626  0.2648  0.0892 -0.5628
  119POPC  H14A15823   6.609   7.438   2.564 -0.3859  2.8854  1.3904
  119POPC  H14B15824   6.461   7.434   2.663  1.2536  2.0943 -1.3111
  119POPC  H14C15825   6.599   7.346   2.714  0.3307  1.1051 -0.2302
  119POPC   C1515817   6.611   7.168   2.516  0.4240  0.6218  0.2548
  119POPC  H15A15826   6.575   7.090   2.451 -0.5558 -0.5619  2.1902
  119POPC  H15B15827   6.643   7.124   2.609 -0.4265 -4.0113 -1.4976
  119POPC  H15C15828   6.685   7.224   2.460  0.3327  0.2365 -0.2545
  119POPC   C1115829   6.339   7.052   2.539  0.2786 -0.7109 -0.3391
  119POPC  H11A15830   6.277   6.996   2.612  0.1975 -0.6919 -0.3940
  119POPC  H11B15831   6.413   6.972   2.514  1.3934 -0.4015  1.8220
  119POPC     P15832   6.105   7.082   2.418  0.0494 -0.0760 -0.4382
  119POPC   O1315833   6.061   7.023   2.289  0.1134 -0.1383 -0.4312
  119POPC   O1415834   6.060   7.217   2.458  0.3701  0.0077 -0.3645
  119POPC   O1215835   6.265   7.080   2.420  0.0492  0.3012  0.0356
  119POPC   O1115836   6.075   6.978   2.536  0.4606  0.0691 -0.2058
  119POPC    C115837   6.048   6.845   2.491  0.1927  0.2223 -0.5059
  119POPC    HA15838   6.052   6.782   2.582 -0.1292  0.6171 -0.2124
  119POPC    HB15839   6.122   6.808   2.418 -2.8646 -3.0305 -2.1015
  119POPC    C215840   5.905   6.817   2.441  0.0550  0.1245 -0.0654
  119POPC    HS15841   5.892   6.862   2.340  0.7047  0.1344 -0.1507
  119POPC   O2115842   5.809   6.865   2.535 -0.2144 -0.4457 -0.0463
  119POPC   C2115843   5.687   6.865   2.481 -0.1846  0.4050 -0.1231
  119POPC   O2215844   5.656   6.833   2.367  0.5099 -0.6335 -0.0327
  119POPC   C2215845   5.593   6.910   2.592 -0.4366  0.1597 -0.2375
  119POPC   H2R15846   5.512   6.973   2.550 -0.7838  0.6684  1.1612
  119POPC   H2S15847   5.654   6.972   2.661 -1.1268 -1.3619  1.7943
  119POPC    C315848   5.895   6.665   2.417  0.6901  0.0914 -0.1375
  119POPC    HX15849   5.988   6.632   2.365  1.8613  0.7571  1.4804
  119POPC    HY15850   5.799   6.644   2.366  1.3145 -0.4492 -1.1088
  119POPC   O3115851   5.894   6.603   2.546  0.5715 -0.1992 -0.2793
  119POPC   C3115852   5.866   6.473   2.530 -0.0597 -0.0371 -0.4887
  119POPC   O3215853   5.840   6.408   2.431 -0.2886 -0.4163 -0.1813
  119POPC   C3215854   5.894   6.415   2.668 -0.0294 -0.0383 -0.4956
  119POPC   H2X15855   5.951   6.481   2.736  0.3923 -2.3835  1.5187
  119POPC   H2Y15856   5.955   6.324   2.649 -0.3302 -0.0639 -1.3757
  119POPC   C2315857   5.537   6.787   2.665  0.1885 -0.0792 -0.1637
  119POPC   H3R15858   5.524   6.823   2.769  2.5936 -2.0670  0.8797
  119POPC   H3S15859   5.619   6.711   2.661 -0.3208 -0.7054  1.0317
  119POPC   C2415860   5.402   6.734   2.617 -0.0816  0.3421  0.1278
  119POPC   H4R15861   5.392   6.700   2.511  1.1216 -0.8359  0.3764
  119POPC   H4S15862   5.331   6.817   2.634 -1.8848 -1.0070 -0.6712
  119POPC   C2515863   5.353   6.611   2.694  0.2044  0.4023  0.4039
  119POPC   H5R15864   5.418   6.523   2.675 -0.2084  0.1201  0.2958
  119POPC   H5S15865   5.250   6.592   2.656  0.7623 -1.2500 -0.3205
  119POPC   C2615866   5.350   6.617   2.847 -0.4242 -0.0593  0.4115
  119POPC   H6R15867   5.460   6.610   2.865 -0.3491 -0.8137 -0.3147
  119POPC   H6S15868   5.312   6.518   2.880 -0.3437  0.0267  0.7619
  119POPC   C2715869   5.272   6.732   2.911  0.3036  0.9321 -0.4552
  119POPC   H7R15870   5.306   6.828   2.868 -0.5446  1.5265  0.1944
  119POPC   H7S15871   5.283   6.714   3.020 -2.7548 -0.5675 -0.3247
  119POPC   C2815872   5.119   6.721   2.898  0.3607 -0.2693 -0.2408
  119POPC   H8R15873   5.093   6.620   2.934  1.9506 -1.1360 -1.4514
  119POPC   H8S15874   5.085   6.720   2.792 -0.7620  0.7922  0.1006
  119POPC   C2915875   5.064   6.831   2.984 -0.3393 -0.5026 -0.3891
  119POPC   H9115876   5.082   6.933   2.946 -1.1130  0.0887  0.7926
  119POPC  C21015877   5.015   6.824   3.108  0.4119  0.0131 -0.0536
  119POPC  H10115878   4.982   6.916   3.159  3.4693  1.0855  0.0956
  119POPC  C21115879   5.010   6.699   3.193  0.0340  0.1379  0.1089
  119POPC  H11R15880   5.107   6.647   3.212 -0.4708 -0.2308  1.7070
  119POPC  H11S15881   4.944   6.630   3.137  0.5772 -0.4058  0.1382
  119POPC  C21215882   4.949   6.718   3.332 -0.4790  0.4365 -0.1566
  119POPC  H12R15883   4.996   6.807   3.378 -0.4003 -1.2001  3.0684
  119POPC  H12S15884   4.967   6.635   3.403  2.2043  1.6969  0.6904
  119POPC  C21315885   4.800   6.752   3.322 -0.4315  0.5475 -0.4816
  119POPC  H13R15886   4.740   6.670   3.277  2.4263 -1.4318 -0.7764
  119POPC  H13S15887   4.794   6.835   3.248 -1.6702  0.0726 -0.9178
  119POPC  C21415888   4.737   6.798   3.454 -0.1658 -0.5036  0.0151
  119POPC  H14R15889   4.804   6.879   3.491  0.2932 -1.2009  0.7244
  119POPC  H14S15890   4.745   6.717   3.529  2.0114 -0.8726 -0.5798
  119POPC  C21515891   4.596   6.846   3.420 -0.1414 -0.1554  0.4005
  119POPC  H15R15892   4.530   6.761   3.392  0.5820 -0.3935 -0.6093
  119POPC  H15S15893   4.602   6.902   3.324 -0.8869 -1.4113 -0.3924
  119POPC  C21615894   4.526   6.937   3.521  0.2373  0.1869  0.3588
  119POPC  H16R15895   4.483   6.868   3.597  1.5357  0.4494  1.3456
  119POPC  H16S15896   4.432   6.982   3.482  0.0857  0.0106  0.5225
  119POPC  C21715897   4.613   7.047   3.582  0.5941 -0.0217  0.2254
  119POPC  H17R15898   4.699   7.008   3.642  1.0317  1.5582  0.6441
  119POPC  H17S15899   4.550   7.115   3.644  0.9660  0.1974  0.3651
  119POPC  C21815900   4.659   7.151   3.481 -0.3663 -0.3207 -0.5252
  119POPC  H18R15901   4.768   7.172   3.480  0.0807 -2.3073  1.6642
  119POPC  H18S15902   4.610   7.249   3.498  0.2860 -0.3527  1.6353
  119POPC  H18T15903   4.633   7.121   3.377 -1.1391 -2.3158  0.2210
  119POPC   C3315904   5.753   6.379   2.716  0.0191  0.2294 -0.1565
  119POPC   H3X15905   5.699   6.314   2.645  0.6381 -0.0873 -0.3405
  119POPC   H3Y15906   5.683   6.464   2.722  0.6117  0.7203 -0.0968
  119POPC   C3415907   5.761   6.300   2.847  0.1767  0.0696 -0.2617
  119POPC   H4X15908   5.834   6.217   2.844 -0.1500 -0.1850 -1.1196
  119POPC   H4Y15909   5.668   6.244   2.869  0.3478  0.4145  1.4200
  119POPC   C3515910   5.796   6.389   2.967 -0.1521  0.5032 -0.4851
  119POPC   H5X15911   5.712   6.461   2.969 -0.5230  0.0538  1.2969
  119POPC   H5Y15912   5.888   6.449   2.952  0.7995 -0.3904  1.5677
  119POPC   C3615913   5.807   6.312   3.099 -0.5767  1.4781  0.1299
  119POPC   H6X15914   5.870   6.376   3.164 -0.0634 -0.3391  1.4737
  119POPC   H6Y15915   5.869   6.220   3.091  0.4221  2.2895 -1.9367
  119POPC   C3715916   5.677   6.273   3.169 -0.0951 -0.0867  0.1735
  119POPC   H7X15917   5.604   6.223   3.103 -0.0871 -1.0063  0.8444
  119POPC   H7Y15918   5.628   6.368   3.197 -0.3225  0.5961 -2.4664
  119POPC   C3815919   5.704   6.189   3.294  0.9770 -0.4647 -0.2974
  119POPC   H8X15920   5.740   6.088   3.265  1.4044  0.5805 -3.5138
  119POPC   H8Y15921   5.607   6.171   3.347  1.4614  0.3005  0.8775
  119POPC   C3915922   5.793   6.254   3.400  0.9856 -0.6041 -0.2174
  119POPC   H9X15923   5.754   6.355   3.425  0.2404 -0.5531 -1.5507
  119POPC   H9Y15924   5.897   6.259   3.361  1.0351 -0.4472 -0.0637
  119POPC  C31015925   5.801   6.176   3.532  0.2340 -0.2554  0.0366
  119POPC  H10X15926   5.829   6.070   3.516 -1.1307 -0.7411  0.7524
  119POPC  H10Y15927   5.702   6.192   3.580 -0.0163  0.8168 -0.8186
  119POPC  C31115928   5.913   6.232   3.620  0.3585 -0.2355 -0.1332
  119POPC  H11X15929   5.881   6.332   3.655 -4.3935 -1.6891  0.1722
  119POPC  H11Y15930   6.006   6.232   3.561 -0.6749  3.1156 -1.8666
  119POPC  C31215931   5.950   6.135   3.732  0.3448 -0.2682 -0.1572
  119POPC  H12X15932   5.998   6.048   3.683  0.1336  0.2110 -1.2084
  119POPC  H12Y15933   5.852   6.111   3.778  0.1621 -1.0705 -0.9460
  119POPC  C31315934   6.035   6.199   3.842 -0.1663 -0.6247  0.4498
  119POPC  H13X15935   5.973   6.257   3.914 -0.1772  1.5811 -1.3006
  119POPC  H13Y15936   6.092   6.280   3.793 -0.2005 -0.2990  0.9391
  119POPC  C31415937   6.136   6.094   3.890  0.3955 -0.2500  0.0884
  119POPC  H14X15938   6.190   6.051   3.803 -1.2689 -0.2625 -0.9701
  119POPC  H14Y15939   6.074   6.011   3.929 -1.7304  1.2171 -0.0613
  119POPC  C31515940   6.244   6.133   3.991 -0.5023  0.3286  0.8443
  119POPC  H15X15941   6.191   6.166   4.082 -0.8797 -1.0291  1.1192
  119POPC  H15Y15942   6.300   6.223   3.955  1.4157  0.4668  3.9818
  119POPC  C31615943   6.351   6.027   4.019 -0.6126 -0.0055  0.0309
  119POPC  H16X15944   6.305   5.936   4.061 -0.0179  0.2942  1.3619
  119POPC  H16Y15945   6.421   6.071   4.093  0.8645 -2.2489  0.0101
  119POPC  H16Z15946   6.408   6.001   3.927 -2.9479 -0.0615 -1.4435
  120POPC     N15947   4.295   1.615   1.819 -0.0855 -0.0948 -0.1805
  120POPC   C1215948   4.398   1.583   1.924 -0.1328  0.0363 -0.0933
  120POPC  H12A15952   4.455   1.675   1.925  0.5352 -0.3250 -2.4874
  120POPC  H12B15953   4.468   1.508   1.889 -0.4837 -0.3660  0.0657
  120POPC   C1315949   4.362   1.628   1.684 -0.6954  0.0343 -0.4725
  120POPC  H13A15954   4.300   1.633   1.596 -0.6337  0.1149 -0.5116
  120POPC  H13B15955   4.435   1.708   1.689 -0.4245 -0.1999 -0.6433
  120POPC  H13C15956   4.416   1.536   1.669  0.1981  0.3243  0.8808
  120POPC   C1415950   4.186   1.512   1.806  0.3759 -0.6233  0.1128
  120POPC  H14A15957   4.129   1.512   1.898 -0.4332 -1.2169 -0.3782
  120POPC  H14B15958   4.119   1.526   1.722  1.3898 -4.0517 -1.3657
  120POPC  H14C15959   4.225   1.412   1.801 -1.2706 -1.3482  1.4188
  120POPC   C1515951   4.239   1.749   1.861 -0.2369 -0.1894 -0.0846
  120POPC  H15A15960   4.169   1.739   1.943 -0.2514 -0.3990 -0.1228
  120POPC  H15B15961   4.192   1.794   1.775 -1.7300 -0.2313  0.6910
  120POPC  H15C15962   4.318   1.815   1.893  0.4161 -1.6029  1.3504
  120POPC   C1115963   4.353   1.544   2.065  0.6696  0.2788  0.2372
  120POPC  H11A15964   4.290   1.628   2.101  1.0487  0.4465  0.5103
  120POPC  H11B15965   4.453   1.543   2.112  0.2304  3.1817  1.3278
  120POPC     P15966   4.159   1.403   2.162  0.2300 -0.3484 -0.2848
  120POPC   O1315967   4.136   1.258   2.186 -0.2328 -0.2044  0.1536
  120POPC   O1415968   4.051   1.480   2.096  0.1403  0.2191  0.5211
  120POPC   O1215969   4.290   1.416   2.072  0.8126  0.2295  0.6409
  120POPC   O1115970   4.212   1.485   2.288 -0.4288 -0.3158 -0.0280
  120POPC    C115971   4.279   1.415   2.393  0.2047  0.3503  0.0138
  120POPC    HA15972   4.363   1.481   2.426 -1.2734  0.8137  3.1385
  120POPC    HB15973   4.332   1.323   2.362 -1.3833 -0.8073  0.6543
  120POPC    C215974   4.192   1.381   2.515  0.1716  0.0143 -0.1052
  120POPC    HS15975   4.120   1.307   2.474 -2.0192  1.1168  1.6078
  120POPC   O2115976   4.118   1.497   2.556 -0.3765 -0.2186 -0.4328
  120POPC   C2115977   4.029   1.470   2.652 -0.5927  0.4277 -0.4545
  120POPC   O2215978   3.994   1.362   2.694 -0.3468  0.1522 -0.9511
  120POPC   C2215979   3.965   1.601   2.697 -0.4723  0.3388 -0.0261
  120POPC   H2R15980   3.875   1.593   2.761  0.5869  0.1581  1.4742
  120POPC   H2S15981   3.940   1.659   2.606  2.0954  1.1720 -0.2434
  120POPC    C315982   4.269   1.298   2.619  0.1590 -0.4599 -0.4722
  120POPC    HX15983   4.331   1.220   2.570  2.3298 -0.1626  1.7069
  120POPC    HY15984   4.204   1.227   2.676  0.1466 -0.9450 -1.0876
  120POPC   O3115985   4.335   1.382   2.715 -0.2972 -0.2151 -0.3697
  120POPC   C3115986   4.463   1.394   2.679 -0.1617  0.4004  0.3260
  120POPC   O3215987   4.520   1.356   2.578  0.0422  0.6184  0.3576
  120POPC   C3215988   4.530   1.491   2.776  0.3681  0.3540  0.0109
  120POPC   H2X15989   4.460   1.569   2.814 -1.9164 -0.2002 -2.8741
  120POPC   H2Y15990   4.623   1.530   2.729  1.4028 -1.9740  0.0762
  120POPC   C2315991   4.073   1.677   2.774 -0.6428  0.0476  0.5047
  120POPC   H3R15992   4.032   1.777   2.801  1.8338  1.2301  0.1169
  120POPC   H3S15993   4.160   1.685   2.705 -2.4969 -3.4449 -2.4018
  120POPC   C2415994   4.126   1.618   2.905  0.5377 -0.1580 -0.0590
  120POPC   H4R15995   4.181   1.530   2.863  1.2400  0.0319  0.4473
  120POPC   H4S15996   4.042   1.575   2.964  0.6239 -0.3432 -0.0710
  120POPC   C2515997   4.225   1.704   2.984  0.4530  0.1371 -0.2770
  120POPC   H5R15998   4.185   1.808   2.978  1.2384  0.4457 -0.2611
  120POPC   H5S15999   4.317   1.696   2.923  1.5324  0.2693  1.3191
  120POPC   C2616000   4.254   1.648   3.123  0.3070  0.2140 -0.2153
  120POPC   H6R16001   4.282   1.541   3.116 -3.2810 -0.9277  1.4308
  120POPC   H6S16002   4.166   1.653   3.190  0.5434 -1.0716  0.1907
  120POPC   C2716003   4.363   1.730   3.193 -0.3812  0.4702  0.5571
  120POPC   H7R16004   4.319   1.828   3.224 -0.1317  0.6515  0.3355
  120POPC   H7S16005   4.450   1.746   3.127 -2.7358  1.0710 -2.4952
  120POPC   C2816006   4.408   1.670   3.327  0.0259 -0.2113  0.1163
  120POPC   H8R16007   4.431   1.563   3.309 -0.6026 -0.4810  0.9071
  120POPC   H8S16008   4.330   1.680   3.405 -0.5031 -3.9619  0.1280
  120POPC   C2916009   4.531   1.744   3.370 -0.1896  0.4283 -0.3481
  120POPC   H9116010   4.627   1.738   3.317  1.5031 -3.4658  2.8592
  120POPC  C21016011   4.543   1.803   3.490 -0.6186  0.1266 -0.1562
  120POPC  H10116012   4.643   1.841   3.518 -0.5659  0.9356 -1.4094
  120POPC  C21116013   4.441   1.825   3.598 -0.4513  0.5795 -0.0894
  120POPC  H11R16014   4.347   1.773   3.569  0.1856 -0.8382  0.3341
  120POPC  H11S16015   4.426   1.935   3.606  0.1534  0.4892  2.7430
  120POPC  C21216016   4.497   1.779   3.733  0.3321  0.6821 -0.3772
  120POPC  H12R16017   4.594   1.831   3.744  1.4457 -1.3713 -0.2976
  120POPC  H12S16018   4.528   1.673   3.720  0.4724  0.6576  0.1801
  120POPC  C21316019   4.401   1.809   3.848  0.7337 -0.3291  0.2200
  120POPC  H13R16020   4.438   1.758   3.940 -0.9620 -0.3930  0.8967
  120POPC  H13S16021   4.308   1.754   3.822 -0.4507  1.3400  0.8598
  120POPC  C21416022   4.360   1.955   3.865  0.3415 -0.4433  0.2794
  120POPC  H14R16023   4.303   1.987   3.775 -2.2000  2.2973  2.7524
  120POPC  H14S16024   4.451   2.016   3.885 -1.2217  1.2581  2.3687
  120POPC  C21516025   4.266   1.984   3.981  0.3401  0.0426  0.1579
  120POPC  H15R16026   4.180   1.914   3.981 -1.1913  1.8434  1.3944
  120POPC  H15S16027   4.227   2.087   3.962  0.9252 -0.1663 -2.2836
  120POPC  C21616028   4.310   1.976   4.128 -0.0006  0.4412  0.2852
  120POPC  H16R16029   4.386   2.056   4.130 -1.8085  2.1476  2.2680
  120POPC  H16S16030   4.349   1.876   4.159  0.2027 -0.3685 -2.3858
  120POPC  C21716031   4.202   2.017   4.228 -0.1571 -0.1178  0.3494
  120POPC  H17R16032   4.131   2.091   4.184  1.5239  1.6633  0.5604
  120POPC  H17S16033   4.252   2.058   4.318 -0.5975  0.9684  0.1079
  120POPC  C21816034   4.130   1.897   4.289  0.1439 -0.4242  0.1017
  120POPC  H18R16035   4.094   1.821   4.217 -1.4645  0.4849 -0.0578
  120POPC  H18S16036   4.044   1.925   4.354  1.0422 -0.3729  1.2968
  120POPC  H18T16037   4.203   1.849   4.359  1.4686 -2.0397 -2.3276
  120POPC   C3316038   4.576   1.424   2.906 -0.1476 -0.5445 -0.2622
  120POPC   H3X16039   4.657   1.351   2.885 -0.9003 -0.7949 -2.4253
  120POPC   H3Y16040   4.491   1.362   2.939  0.9381 -1.4249  0.9367
  120POPC   C3416041   4.619   1.533   3.004 -0.3372 -0.8164  0.1213
  120POPC   H4X16042   4.528   1.588   3.035  0.0128 -0.0563 -0.1846
  120POPC   H4Y16043   4.692   1.605   2.961 -0.8726 -1.5455 -2.0602
  120POPC   C3516044   4.667   1.470   3.135 -0.3829  0.5877  0.8191
  120POPC   H5X16045   4.679   1.564   3.194  0.6921  2.4228 -2.2425
  120POPC   H5Y16046   4.768   1.424   3.130 -0.3685  0.8118 -1.4060
  120POPC   C3616047   4.575   1.374   3.212 -0.1663 -0.3099 -0.0413
  120POPC   H6X16048   4.584   1.270   3.175 -1.8476  0.1430 -1.8403
  120POPC   H6Y16049   4.470   1.406   3.195 -0.1880  0.3158  1.2602
  120POPC   C3716050   4.599   1.358   3.362  0.1190 -0.1223 -0.0662
  120POPC   H7X16051   4.638   1.455   3.401 -2.2191  0.8609 -0.0711
  120POPC   H7Y16052   4.670   1.274   3.376 -1.4990 -0.9870  3.5101
  120POPC   C3816053   4.479   1.316   3.447  0.3336 -0.2545  0.1703
  120POPC   H8X16054   4.455   1.207   3.451  2.0197 -0.7060 -1.2364
  120POPC   H8Y16055   4.389   1.367   3.407 -0.0902 -1.3448 -0.2794
  120POPC   C3916056   4.486   1.357   3.594  0.7691  0.2884 -0.0029
  120POPC   H9X16057   4.506   1.466   3.585  0.1930  0.4605  0.7338
  120POPC   H9Y16058   4.576   1.321   3.650 -0.1684 -0.2159  1.1922
  120POPC  C31016059   4.365   1.324   3.681  0.3472  0.2483 -0.6069
  120POPC  H10X16060   4.393   1.351   3.785  0.3309  0.6803 -0.7129
  120POPC  H10Y16061   4.337   1.217   3.683 -0.6660  0.5291  1.0577
  120POPC  C31116062   4.236   1.399   3.647  0.0264 -0.2953 -0.5902
  120POPC  H11X16063   4.212   1.364   3.544  1.5517  1.7435 -1.6685
  120POPC  H11Y16064   4.248   1.509   3.645 -0.4612 -0.2369 -0.3606
  120POPC  C31216065   4.126   1.359   3.746  0.5549  0.2594  0.2298
  120POPC  H12X16066   4.147   1.267   3.804 -0.5506 -1.4812 -2.0366
  120POPC  H12Y16067   4.036   1.336   3.683  0.2923  1.7140  0.0536
  120POPC  C31316068   4.094   1.469   3.848  0.4784  0.4546 -0.0009
  120POPC  H13X16069   3.999   1.446   3.900  1.2396 -0.3090  1.0800
  120POPC  H13Y16070   4.077   1.570   3.807 -1.0428  0.8600  1.5856
  120POPC  C31416071   4.192   1.474   3.966  0.2100 -0.1669  0.2526
  120POPC  H14X16072   4.286   1.521   3.930 -0.0347  0.2378  0.1305
  120POPC  H14Y16073   4.228   1.378   4.008  0.9717 -0.3634 -0.8393
  120POPC  C31516074   4.121   1.539   4.085 -0.2788  0.7289 -0.5135
  120POPC  H15X16075   4.034   1.474   4.108  0.8759 -0.5977  0.2422
  120POPC  H15Y16076   4.081   1.641   4.067  0.3051  0.9897 -0.3732
  120POPC  C31616077   4.217   1.545   4.204 -0.4090  0.7816 -0.4104
  120POPC  H16X16078   4.235   1.444   4.248 -0.0009  0.2484 -1.7600
  120POPC  H16Y16079   4.172   1.601   4.289  2.0461 -0.5145  1.8327
  120POPC  H16Z16080   4.317   1.590   4.189  1.0622 -2.2054 -0.0643
  121POPC     N16081   6.196   0.456   2.214  0.2854 -0.0041  0.1112
  121POPC   C1216082   6.076   0.544   2.190 -0.1471 -0.4836  0.5048
  121POPC  H12A16086   5.993   0.475   2.183 -0.8068  0.5919 -2.8165
  121POPC  H12B16087   6.094   0.591   2.095  5.1171 -1.7744  0.7273
  121POPC   C1316083   6.325   0.533   2.226  0.0813  0.3594 -0.0280
  121POPC  H13A16088   6.300   0.626   2.276  1.1713  1.0922 -0.8062
  121POPC  H13B16089   6.396   0.478   2.286  1.6301  1.5810 -0.6917
  121POPC  H13C16090   6.371   0.555   2.131  1.3335 -0.1228  0.4506
  121POPC   C1416084   6.170   0.387   2.346 -0.0214  0.1262  0.1200
  121POPC  H14A16091   6.082   0.326   2.339 -0.1074  0.0310  1.7489
  121POPC  H14B16092   6.256   0.324   2.364 -0.4452 -0.2811  0.7158
  121POPC  H14C16093   6.161   0.463   2.423 -1.7661  0.2423 -0.1866
  121POPC   C1516085   6.204   0.343   2.114 -0.9384  0.1482 -0.1716
  121POPC  H15A16094   6.220   0.397   2.022  1.2154  0.5541  0.3995
  121POPC  H15B16095   6.116   0.282   2.105  1.0309 -2.4127 -3.1763
  121POPC  H15C16096   6.288   0.275   2.122 -0.2972  1.0540  1.1280
  121POPC   C1116097   6.046   0.652   2.295 -0.1789  0.3240 -0.3274
  121POPC  H11A16098   6.015   0.608   2.392 -0.1027  0.2727 -0.3265
  121POPC  H11B16099   5.955   0.704   2.258 -0.0079  2.0324  1.5746
  121POPC     P16100   6.130   0.874   2.399  0.0815  0.0407 -0.2271
  121POPC   O1316101   6.015   0.949   2.344  0.2359 -0.0317 -0.6502
  121POPC   O1416102   6.258   0.949   2.399 -0.0025  0.1836 -0.1400
  121POPC   O1216103   6.156   0.741   2.313  0.0411  0.0305 -0.2233
  121POPC   O1116104   6.101   0.819   2.546  0.4630 -0.2360 -0.2550
  121POPC    C116105   6.125   0.898   2.663 -0.2141 -0.0826 -0.2212
  121POPC    HA16106   6.032   0.881   2.722  0.1632 -1.5752 -0.0173
  121POPC    HB16107   6.120   1.006   2.640  2.9957 -0.0581 -0.9496
  121POPC    C216108   6.257   0.861   2.733 -0.1532 -0.3077 -0.4557
  121POPC    HS16109   6.334   0.857   2.653  1.3136  0.3422  0.8961
  121POPC   O2116110   6.252   0.736   2.801  0.1910 -0.1901 -0.2141
  121POPC   C2116111   6.374   0.686   2.826  0.1919 -0.1339 -0.1086
  121POPC   O2216112   6.473   0.711   2.759  0.2990 -0.0631  0.0770
  121POPC   C2216113   6.369   0.581   2.936 -0.4124  0.3095  0.2972
  121POPC   H2R16114   6.424   0.489   2.906 -0.6818  0.2418  0.0068
  121POPC   H2S16115   6.265   0.544   2.943 -0.3978 -0.7710 -3.5684
  121POPC    C316116   6.302   0.981   2.817 -0.6066 -0.1111 -0.4879
  121POPC    HX16117   6.316   1.075   2.759 -2.9669  0.0042 -0.9105
  121POPC    HY16118   6.409   0.966   2.844  0.2925  1.5849 -2.9837
  121POPC   O3116119   6.213   1.004   2.927  0.1042  0.3973 -0.0079
  121POPC   C3116120   6.276   1.016   3.044 -0.0802  0.3447  0.0973
  121POPC   O3216121   6.388   1.063   3.061  0.1296 -0.2438  0.3340
  121POPC   C3216122   6.187   0.969   3.157  0.1052 -0.1600  0.0358
  121POPC   H2X16123   6.146   0.867   3.142 -0.6572 -0.0042  0.9555
  121POPC   H2Y16124   6.103   1.040   3.176  1.3809  1.7101 -1.2441
  121POPC   C2316125   6.428   0.638   3.065 -0.3629 -0.4853  0.6254
  121POPC   H3R16126   6.374   0.732   3.086  0.0950 -0.0146 -0.2848
  121POPC   H3S16127   6.534   0.661   3.045 -0.1759  0.1751  2.3088
  121POPC   C2416128   6.424   0.541   3.184  0.0754 -0.7496  0.4227
  121POPC   H4R16129   6.466   0.442   3.155 -0.3408 -0.2649 -2.0067
  121POPC   H4S16130   6.324   0.525   3.228 -0.1270  0.2428  0.3372
  121POPC   C2516131   6.516   0.595   3.293 -0.1045 -0.4783  0.4379
  121POPC   H5R16132   6.451   0.682   3.317 -0.3790  0.4789 -3.4611
  121POPC   H5S16133   6.615   0.621   3.248 -0.1595 -0.4416  0.3378
  121POPC   C2616134   6.532   0.504   3.415  0.4041 -0.5711  0.3033
  121POPC   H6R16135   6.596   0.419   3.383 -0.9624 -1.4858 -0.0184
  121POPC   H6S16136   6.433   0.460   3.439 -0.0928  0.3364 -0.0460
  121POPC   C2716137   6.598   0.588   3.525  0.2106 -0.3668  0.2631
  121POPC   H7R16138   6.544   0.684   3.539  0.4747 -0.0169 -1.0744
  121POPC   H7S16139   6.701   0.607   3.490  1.0006  3.1898  4.1636
  121POPC   C2816140   6.629   0.528   3.662  0.3495  0.3589  0.5505
  121POPC   H8R16141   6.677   0.607   3.724  1.8431  0.4276 -0.6692
  121POPC   H8S16142   6.694   0.439   3.652 -2.6749 -2.0143  1.2804
  121POPC   C2916143   6.502   0.479   3.726  0.1254 -0.2033 -0.3209
  121POPC   H9116144   6.424   0.432   3.664 -0.4268  1.6012 -1.0277
  121POPC  C21016145   6.471   0.456   3.855  0.0810 -0.1432 -0.3215
  121POPC  H10116146   6.370   0.416   3.872  0.0283  0.5942  1.2184
  121POPC  C21116147   6.557   0.494   3.972  0.1002 -0.1111 -0.3454
  121POPC  H11R16148   6.493   0.547   4.046 -0.4232 -0.7412 -0.3333
  121POPC  H11S16149   6.628   0.572   3.939  0.4304 -0.5399 -0.6585
  121POPC  C21216150   6.616   0.374   4.046  0.1189  0.1062 -0.0093
  121POPC  H12R16151   6.533   0.314   4.088 -1.7081  1.3784 -1.7177
  121POPC  H12S16152   6.675   0.421   4.128  0.4381 -1.0038  0.4087
  121POPC  C21316153   6.710   0.287   3.962  0.3178  0.0312  0.2887
  121POPC  H13R16154   6.793   0.349   3.923 -0.0164 -0.1969 -0.7963
  121POPC  H13S16155   6.654   0.235   3.881  1.4811  0.6779 -0.9478
  121POPC  C21416156   6.770   0.173   4.045  0.1916 -0.1158  0.1806
  121POPC  H14R16157   6.718   0.078   4.023 -1.7021  0.7462  0.8020
  121POPC  H14S16158   6.763   0.187   4.155  0.0522 -1.2612  0.3222
  121POPC  C21516159   6.919   0.154   4.020  0.0516 -0.1894 -0.5921
  121POPC  H15R16160   6.979   0.239   4.059  0.9697 -0.5529 -1.1912
  121POPC  H15S16161   6.928   0.138   3.910  1.3167 -0.6752 -0.4285
  121POPC  C21616162   6.986   0.037   4.091 -0.0145 -0.3421 -0.7809
  121POPC  H16R16163   6.984   0.050   4.201 -0.0478 -1.0927 -0.6860
  121POPC  H16S16164   7.093   0.028   4.064  0.3460 -0.0337  0.4823
  121POPC  C21716165   6.919   7.868   4.050 -0.0889 -0.6693  0.2314
  121POPC  H17R16166   6.814   7.859   4.085 -0.6262  1.1150 -0.8661
  121POPC  H17S16167   6.981   7.784   4.089  2.0102  0.9150  0.3469
  121POPC  C21816168   6.904   7.834   3.901  0.0723  0.7439 -0.1116
  121POPC  H18R16169   6.992   7.852   3.835 -0.7297  0.6941 -1.2048
  121POPC  H18S16170   6.822   7.887   3.849 -0.8925 -0.4482  0.1718
  121POPC  H18T16171   6.874   7.727   3.892  2.1637  0.1517 -0.2625
  121POPC   C3316172   6.265   0.960   3.288  0.2936  0.3101 -0.0424
  121POPC   H3X16173   6.321   1.050   3.323  1.8247 -1.1002  1.2494
  121POPC   H3Y16174   6.352   0.891   3.277  1.7775  1.6542  2.5500
  121POPC   C3416175   6.163   0.917   3.394  0.7485 -0.2017  0.1937
  121POPC   H4X16176   6.083   0.850   3.355  2.1115 -1.6533 -0.1597
  121POPC   H4Y16177   6.109   1.007   3.431  0.5900 -0.0688 -0.3519
  121POPC   C3516178   6.235   0.843   3.507  0.4547 -0.1528  0.4116
  121POPC   H5X16179   6.327   0.901   3.529 -0.3758  1.3037  0.1133
  121POPC   H5Y16180   6.268   0.744   3.469 -2.0638 -1.1139  0.6331
  121POPC   C3616181   6.152   0.831   3.635 -0.1636 -0.3969 -0.0060
  121POPC   H6X16182   6.059   0.772   3.622  0.4617 -1.6144  0.9497
  121POPC   H6Y16183   6.115   0.929   3.673 -0.3188 -0.4958  0.0962
  121POPC   C3716184   6.221   0.766   3.755  0.0505  0.4187  0.3137
  121POPC   H7X16185   6.312   0.825   3.780 -0.7645  1.2941  1.2702
  121POPC   H7Y16186   6.254   0.662   3.738 -0.9769 -0.2133  2.0579
  121POPC   C3816187   6.132   0.752   3.879 -0.0832 -0.2195  0.1425
  121POPC   H8X16188   6.045   0.688   3.853  1.5888 -3.4605  2.1680
  121POPC   H8Y16189   6.106   0.853   3.916 -0.3263 -0.2641  0.0936
  121POPC   C3916190   6.207   0.690   3.997  0.2131 -0.3158 -0.0944
  121POPC   H9X16191   6.296   0.750   4.024 -0.1314  0.0416  0.2479
  121POPC   H9Y16192   6.237   0.586   3.972 -0.9216  0.0268 -3.1174
  121POPC  C31016193   6.114   0.706   4.118  0.8326 -0.0525  0.3476
  121POPC  H10X16194   6.136   0.628   4.194  0.8106 -0.6339 -0.2360
  121POPC  H10Y16195   6.004   0.690   4.113  0.8084  0.1955  0.0935
  121POPC  C31116196   6.133   0.831   4.204  1.2648 -0.2781  0.5819
  121POPC  H11X16197   6.092   0.928   4.169  1.2866 -0.6507 -0.5065
  121POPC  H11Y16198   6.239   0.866   4.206  0.8292  1.0776  0.2725
  121POPC  C31216199   6.092   0.804   4.348 -0.2046 -1.0477  0.0269
  121POPC  H12X16200   6.130   0.879   4.421  0.8636 -0.6685 -0.9121
  121POPC  H12Y16201   6.119   0.702   4.383  1.8555 -1.3708 -2.3822
  121POPC  C31316202   5.939   0.815   4.351 -0.1770 -0.5789 -0.0887
  121POPC  H13X16203   5.888   0.757   4.271 -1.6968  0.2185  0.2951
  121POPC  H13Y16204   5.914   0.916   4.314  0.8437 -0.2751  0.0345
  121POPC  C31416205   5.880   0.797   4.491  0.3383 -0.0251  0.2024
  121POPC  H14X16206   5.959   0.846   4.553  1.1248 -0.5705 -0.3607
  121POPC  H14Y16207   5.877   0.688   4.514 -2.4767 -0.2310 -0.9166
  121POPC  C31516208   5.738   0.853   4.503  0.3299 -0.0233  0.0761
  121POPC  H15X16209   5.678   0.802   4.425 -0.1902 -0.4683  0.7504
  121POPC  H15Y16210   5.743   0.963   4.491  0.4876 -0.1623 -1.1363
  121POPC  C31616211   5.669   0.837   4.639 -1.0042  0.6371 -0.5228
  121POPC  H16X16212   5.588   0.913   4.647 -1.2446  0.5408 -1.8395
  121POPC  H16Y16213   5.732   0.850   4.729 -1.2315 -1.6217 -0.0265
  121POPC  H16Z16214   5.619   0.740   4.657 -0.6510  0.8807  1.9633
  122POPC     N16215   4.987   5.530   2.172 -0.1094 -0.6896 -0.0001
  122POPC   C1216216   5.118   5.531   2.249 -0.2072  0.5234  0.1662
  122POPC  H12A16220   5.150   5.633   2.257  1.0286  0.1206  0.3833
  122POPC  H12B16221   5.193   5.483   2.188 -1.1164  0.6258 -1.0676
  122POPC   C1316217   4.870   5.572   2.258  0.4043  0.3409  0.2089
  122POPC  H13A16222   4.780   5.575   2.198 -0.7153  2.9139  1.9375
  122POPC  H13B16223   4.857   5.498   2.336 -1.4002 -0.3138 -0.6816
  122POPC  H13C16224   4.889   5.671   2.296  2.7424  0.6409 -1.5526
  122POPC   C1416218   5.013   5.614   2.049  0.5592 -0.1764  0.4815
  122POPC  H14A16225   5.051   5.710   2.080 -0.1630 -1.0122  4.1463
  122POPC  H14B16226   5.075   5.555   1.983 -0.3285 -1.4039  0.7170
  122POPC  H14C16227   4.920   5.638   1.999 -0.0227 -1.2304  1.0208
  122POPC   C1516219   4.977   5.391   2.116  0.8470 -0.6539 -0.2808
  122POPC  H15A16228   5.042   5.383   2.030 -0.9701  1.2065 -1.8601
  122POPC  H15B16229   4.880   5.378   2.070  0.3451 -1.1798  0.8952
  122POPC  H15C16230   4.995   5.308   2.184  0.8563  0.3818  0.9911
  122POPC   C1116231   5.121   5.460   2.385 -0.6999 -0.0956 -0.1399
  122POPC  H11A16232   5.059   5.515   2.458 -0.5747 -1.3008  0.8926
  122POPC  H11B16233   5.229   5.459   2.412 -1.0635  0.7594  1.3976
  122POPC     P16234   5.058   5.241   2.505  0.1865 -0.0134  0.2781
  122POPC   O1316235   5.100   5.100   2.485 -0.2406 -0.1900  0.6048
  122POPC   O1416236   4.916   5.263   2.540  0.1035 -0.1681  0.0394
  122POPC   O1216237   5.082   5.324   2.370 -1.3890  0.0806  0.0461
  122POPC   O1116238   5.163   5.310   2.604  0.3347  0.1364  0.0168
  122POPC    C116239   5.290   5.249   2.627 -0.1093 -0.6703  0.3351
  122POPC    HA16240   5.365   5.329   2.611 -1.7495  0.9128  0.4758
  122POPC    HB16241   5.322   5.165   2.561 -0.5697 -0.0523 -0.6902
  122POPC    C216242   5.297   5.189   2.768 -0.2264 -0.5055  0.4117
  122POPC    HS16243   5.216   5.113   2.759  0.8313 -1.6567  0.5156
  122POPC   O2116244   5.263   5.285   2.868  0.0814 -0.2719  0.2918
  122POPC   C2116245   5.198   5.221   2.966 -0.3017 -0.2354  0.0610
  122POPC   O2216246   5.205   5.102   2.987  0.7436 -0.1740  0.0648
  122POPC   C2216247   5.159   5.329   3.066 -0.7981 -0.2494 -0.1165
  122POPC   H2R16248   5.055   5.351   3.034 -0.4952  0.6075 -0.5235
  122POPC   H2S16249   5.221   5.420   3.053 -0.6009 -0.2964  0.4730
  122POPC    C316250   5.430   5.119   2.802  0.3491  0.4757  0.1941
  122POPC    HX16251   5.468   5.057   2.719  1.8277 -2.1620  2.7353
  122POPC    HY16252   5.420   5.036   2.876 -2.0299 -0.6292 -1.2960
  122POPC   O3116253   5.530   5.210   2.848  0.1280  0.5186  0.5924
  122POPC   C3116254   5.602   5.267   2.752 -0.1774  0.3116  0.2389
  122POPC   O3216255   5.600   5.234   2.634  0.4646 -0.2152  0.3707
  122POPC   C3216256   5.691   5.375   2.811  0.5572 -0.4660  0.5717
  122POPC   H2X16257   5.628   5.464   2.832  1.1530  0.1302 -0.1328
  122POPC   H2Y16258   5.778   5.391   2.744 -0.2760 -1.4163 -0.7535
  122POPC   C2316259   5.165   5.262   3.204  0.9890 -0.2945 -0.2067
  122POPC   H3R16260   5.254   5.196   3.213  1.7266  0.7026 -0.2109
  122POPC   H3S16261   5.083   5.187   3.203  0.9270 -0.2237 -0.4257
  122POPC   C2416262   5.141   5.352   3.325  0.0589 -0.3481 -0.3488
  122POPC   H4R16263   5.040   5.397   3.317 -0.0076 -0.6454 -1.2153
  122POPC   H4S16264   5.212   5.434   3.306  0.4143  0.0620  2.5035
  122POPC   C2516265   5.169   5.289   3.462  0.4725  0.3441 -0.1164
  122POPC   H5R16266   5.268   5.244   3.481 -0.4191 -0.8346  1.9549
  122POPC   H5S16267   5.100   5.202   3.465  1.2877 -0.3544 -1.5204
  122POPC   C2616268   5.158   5.395   3.572  0.0022  0.2458 -0.0693
  122POPC   H6R16269   5.070   5.458   3.546 -0.8560 -0.4362  1.1259
  122POPC   H6S16270   5.240   5.470   3.573  0.3043 -0.0708 -1.0733
  122POPC   C2716271   5.128   5.350   3.715  0.4701  0.6706  0.1642
  122POPC   H7R16272   5.041   5.281   3.711  0.9187 -0.0314  2.0696
  122POPC   H7S16273   5.101   5.439   3.775  0.9300  0.7288  0.2888
  122POPC   C2816274   5.241   5.270   3.782 -0.2691 -0.0144  0.5994
  122POPC   H8R16275   5.335   5.329   3.777 -0.8072  0.9159  1.3015
  122POPC   H8S16276   5.268   5.176   3.730 -1.5618  0.9524 -1.8918
  122POPC   C2916277   5.210   5.232   3.924 -0.5493  0.0221  0.5490
  122POPC   H9116278   5.112   5.260   3.966 -0.0015  2.9369 -0.0029
  122POPC  C21016279   5.290   5.168   4.010  0.3145  0.5490  0.1434
  122POPC  H10116280   5.253   5.150   4.113 -0.6560 -0.9724 -0.4541
  122POPC  C21116281   5.429   5.126   3.973 -0.1561  0.0654 -1.0796
  122POPC  H11R16282   5.505   5.136   4.053 -0.4553 -1.2544 -0.6315
  122POPC  H11S16283   5.464   5.184   3.884 -1.1374 -0.1383 -1.6031
  122POPC  C21216284   5.451   4.981   3.929 -0.2110 -0.2034 -0.2231
  122POPC  H12R16285   5.410   4.952   3.830  0.4602  0.4091 -0.6890
  122POPC  H12S16286   5.394   4.916   3.998  1.3740 -1.7554 -0.3296
  122POPC  C21316287   5.593   4.926   3.946 -0.0592  0.2234 -0.1151
  122POPC  H13R16288   5.633   4.959   4.044 -1.7837 -0.5146  0.8466
  122POPC  H13S16289   5.660   4.962   3.865 -0.8954 -0.5208 -1.1584
  122POPC  C21416290   5.607   4.774   3.948 -1.2701  0.1093  0.2320
  122POPC  H14R16291   5.575   4.728   4.044  3.7622 -2.0771  1.0410
  122POPC  H14S16292   5.714   4.742   3.945 -0.6313  2.1303  0.7011
  122POPC  C21516293   5.546   4.692   3.835  0.2647 -0.3841 -0.2488
  122POPC  H15R16294   5.439   4.677   3.860  0.0264 -0.9263 -1.5010
  122POPC  H15S16295   5.587   4.588   3.841 -2.4037 -1.4333  0.4574
  122POPC  C21616296   5.557   4.740   3.690 -0.0178 -0.4592 -0.2951
  122POPC  H16R16297   5.519   4.841   3.666 -1.9354 -1.0524  0.1787
  122POPC  H16S16298   5.491   4.668   3.636  0.9299 -0.8073 -1.0198
  122POPC  C21716299   5.696   4.732   3.626 -0.0812  0.2203 -0.5205
  122POPC  H17R16300   5.765   4.786   3.693 -0.9712 -0.3079  0.8342
  122POPC  H17S16301   5.687   4.796   3.536 -0.0608 -0.3651 -0.9461
  122POPC  C21816302   5.752   4.600   3.573  0.3163  0.3417 -0.4011
  122POPC  H18R16303   5.679   4.546   3.509  1.8728  0.9557 -2.7522
  122POPC  H18S16304   5.773   4.540   3.664  1.7692  1.9041  0.3189
  122POPC  H18T16305   5.847   4.609   3.515  0.0289 -1.4683 -1.1928
  122POPC   C3316306   5.742   5.346   2.952  0.7342 -0.9643  0.4052
  122POPC   H3X16307   5.787   5.245   2.946  3.7082  0.3354 -0.0864
  122POPC   H3Y16308   5.661   5.354   3.028  0.5910  0.1803  0.1379
  122POPC   C3416309   5.855   5.443   2.985 -0.1606  0.1079  0.3470
  122POPC   H4X16310   5.820   5.547   3.002  0.1975  0.0304  1.5950
  122POPC   H4Y16311   5.923   5.442   2.897  0.9119 -2.9742  1.1718
  122POPC   C3516312   5.926   5.406   3.115  0.5107  0.1847  0.0038
  122POPC   H5X16313   5.977   5.307   3.107  1.4588  0.6084  0.7595
  122POPC   H5Y16314   5.848   5.388   3.191 -0.7554  2.5485 -0.6984
  122POPC   C3616315   6.009   5.515   3.183 -0.1088  0.5273  0.2118
  122POPC   H6X16316   5.942   5.598   3.212  0.1906  0.7973  0.1243
  122POPC   H6Y16317   6.087   5.547   3.110  0.7197  2.0277  1.7296
  122POPC   C3716318   6.090   5.461   3.301 -0.2359 -0.0256  0.0484
  122POPC   H7X16319   6.178   5.400   3.271  0.6888  1.5329 -0.4321
  122POPC   H7Y16320   6.025   5.395   3.363  1.6433 -1.2777  0.7394
  122POPC   C3816321   6.129   5.569   3.402  1.2101 -0.6357  0.1549
  122POPC   H8X16322   6.040   5.636   3.409  1.4086 -0.3658  0.1096
  122POPC   H8Y16323   6.198   5.642   3.355 -1.0293  0.3900 -1.6442
  122POPC   C3916324   6.167   5.511   3.538  0.2485  0.1399  0.7653
  122POPC   H9X16325   6.262   5.455   3.519 -0.4927 -1.0965  0.6211
  122POPC   H9Y16326   6.088   5.440   3.569  1.4107 -1.9118 -0.7744
  122POPC  C31016327   6.190   5.606   3.656 -0.3913  1.3385 -0.0772
  122POPC  H10X16328   6.096   5.666   3.653 -0.2338  1.5527 -1.3999
  122POPC  H10Y16329   6.270   5.679   3.633  0.0622  1.0927  0.7326
  122POPC  C31116330   6.215   5.544   3.793  0.2823  0.6144 -0.5235
  122POPC  H11X16331   6.300   5.472   3.790 -1.0666 -0.9609 -1.3804
  122POPC  H11Y16332   6.132   5.474   3.815 -0.9916  2.6622  1.4351
  122POPC  C31216333   6.243   5.654   3.896 -0.0173  0.6476 -0.4785
  122POPC  H12X16334   6.160   5.728   3.887  0.7967  1.7592  0.8146
  122POPC  H12Y16335   6.335   5.711   3.870  0.4012  0.1227 -0.1493
  122POPC  C31316336   6.251   5.619   4.045 -0.3136  0.3119 -0.5404
  122POPC  H13X16337   6.300   5.701   4.102 -2.2369  0.0752  1.4762
  122POPC  H13Y16338   6.316   5.531   4.065  0.5430  1.1663  0.4469
  122POPC  C31416339   6.116   5.630   4.116 -0.0663  0.5796 -0.1080
  122POPC  H14X16340   6.059   5.542   4.079 -1.0574  0.1409  2.3956
  122POPC  H14Y16341   6.065   5.724   4.086  0.3038  0.2907 -1.7015
  122POPC  C31516342   6.124   5.632   4.268  0.7572  0.2622 -0.1445
  122POPC  H15X16343   6.019   5.626   4.303  1.4300  2.1081  2.3684
  122POPC  H15Y16344   6.166   5.732   4.293  2.0346  0.1930 -1.9007
  122POPC  C31616345   6.203   5.518   4.332 -0.3198 -0.4063  0.0096
  122POPC  H16X16346   6.211   5.524   4.443 -3.3081 -0.9630  0.3021
  122POPC  H16Y16347   6.306   5.515   4.291 -0.3751  0.5297 -0.2115
  122POPC  H16Z16348   6.165   5.416   4.312  1.8977 -1.6085  1.6646
  123POPC     N16349   6.153   4.659   2.485  0.1854 -0.1616 -0.4081
  123POPC   C1216350   6.032   4.587   2.540  0.1540  0.2896  0.1143
  123POPC  H12A16354   6.060   4.515   2.616 -3.0270 -2.1967 -0.9603
  123POPC  H12B16355   5.991   4.536   2.455 -1.3158  1.0724  0.3299
  123POPC   C1316351   6.133   4.725   2.351  0.0696  0.5379 -0.0474
  123POPC  H13A16356   6.232   4.758   2.324  0.6709  0.3131  1.7834
  123POPC  H13B16357   6.071   4.661   2.291 -0.1738  2.6382 -2.1177
  123POPC  H13C16358   6.072   4.812   2.369  0.7775  0.6765  1.8393
  123POPC   C1416352   6.201   4.767   2.580  0.4780 -0.1705 -0.5455
  123POPC  H14A16359   6.215   4.732   2.681  0.7449  1.3959 -0.0346
  123POPC  H14B16360   6.291   4.815   2.545 -0.0549  1.9335  0.9323
  123POPC  H14C16361   6.124   4.843   2.583 -0.9370 -1.4981 -1.9992
  123POPC   C1516353   6.257   4.553   2.459  0.1457 -0.2342 -0.2660
  123POPC  H15A16362   6.282   4.510   2.555 -0.3418  0.1168  0.0227
  123POPC  H15B16363   6.348   4.590   2.415 -0.6855 -1.1498 -2.8445
  123POPC  H15C16364   6.206   4.483   2.394 -1.6777 -0.1510  1.0448
  123POPC   C1116365   5.913   4.665   2.598  0.3235  0.3108  0.4367
  123POPC  H11A16366   5.939   4.694   2.702 -0.5832 -0.1112  0.7839
  123POPC  H11B16367   5.833   4.589   2.594  2.9332 -2.4986 -0.0645
  123POPC     P16368   5.735   4.854   2.570  0.2548 -0.0003  0.1057
  123POPC   O1316369   5.630   4.754   2.539 -0.7504  1.2515 -0.5923
  123POPC   O1416370   5.728   4.991   2.514 -0.2510  0.0210  0.2202
  123POPC   O1216371   5.872   4.783   2.528 -0.0167 -0.2649 -0.3400
  123POPC   O1116372   5.763   4.866   2.727 -0.0164  0.4532  0.1216
  123POPC    C116373   5.854   4.970   2.762  0.0682  0.4443 -0.0734
  123POPC    HA16374   5.796   5.064   2.773  0.4133  0.5131  1.3195
  123POPC    HB16375   5.936   4.981   2.688  0.2677 -1.9319 -0.2328
  123POPC    C216376   5.923   4.950   2.898 -0.3065 -0.3232  0.0081
  123POPC    HS16377   5.975   4.852   2.903  0.2995  0.0606  1.4103
  123POPC   O2116378   5.825   4.955   3.002 -0.2247  0.4183  0.0545
  123POPC   C2116379   5.767   4.839   3.032  0.1568  0.2008 -0.0437
  123POPC   O2216380   5.799   4.734   2.979  0.0377  0.2782 -0.2691
  123POPC   C2216381   5.670   4.848   3.150  0.0309 -0.2161 -0.1137
  123POPC   H2R16382   5.730   4.828   3.241  0.7246 -0.0776 -0.5341
  123POPC   H2S16383   5.600   4.762   3.140 -0.1122 -0.1970  0.7508
  123POPC    C316384   6.031   5.058   2.916 -0.2824 -0.4310  0.5233
  123POPC    HX16385   5.995   5.160   2.891 -1.4019 -0.4610  1.9778
  123POPC    HY16386   6.112   5.036   2.842 -3.3970 -0.2059 -3.1040
  123POPC   O3116387   6.081   5.065   3.050  0.3524  0.6879  0.2399
  123POPC   C3116388   6.194   5.002   3.080 -0.0847 -0.1858  0.0558
  123POPC   O3216389   6.256   4.929   3.003  0.0759 -0.0067  0.0171
  123POPC   C3216390   6.237   5.017   3.225  0.1950  0.2937 -0.0777
  123POPC   H2X16391   6.321   5.090   3.232  0.0782  0.8015 -3.2911
  123POPC   H2Y16392   6.288   4.922   3.250 -2.5208 -1.7744 -2.1292
  123POPC   C2316393   5.595   4.981   3.153  0.5937  0.0977  0.1385
  123POPC   H3R16394   5.540   4.976   3.057  0.7409  1.6613 -0.0449
  123POPC   H3S16395   5.669   5.064   3.144  0.9598 -0.2781 -0.3742
  123POPC   C2416396   5.506   4.998   3.276  0.1643 -0.9120 -0.0295
  123POPC   H4R16397   5.457   5.096   3.256 -1.1380 -1.5455 -0.0258
  123POPC   H4S16398   5.571   5.016   3.364  1.9815  0.6765 -1.6399
  123POPC   C2516399   5.387   4.904   3.299 -0.0308 -0.5184  0.5860
  123POPC   H5R16400   5.421   4.805   3.335  2.0086 -0.0474  0.0635
  123POPC   H5S16401   5.326   4.892   3.207 -0.7710 -0.8646  1.1150
  123POPC   C2616402   5.286   4.954   3.402 -0.5021  0.1578 -0.2052
  123POPC   H6R16403   5.233   5.041   3.355  1.1512  1.3078  0.0319
  123POPC   H6S16404   5.339   4.990   3.492 -1.6459  0.8393  0.2113
  123POPC   C2716405   5.192   4.841   3.443  0.0541 -0.1207  0.2903
  123POPC   H7R16406   5.259   4.777   3.505 -0.9609  0.4833  2.0509
  123POPC   H7S16407   5.145   4.801   3.350 -1.9994 -1.5849  1.9104
  123POPC   C2816408   5.073   4.890   3.526 -0.1306 -0.2386  0.0995
  123POPC   H8R16409   5.063   4.997   3.499  0.6260 -0.5919 -1.6715
  123POPC   H8S16410   5.112   4.915   3.627  0.0163  0.0292 -0.0214
  123POPC   C2916411   4.938   4.826   3.520 -0.3276  0.1895 -0.0592
  123POPC   H9116412   4.925   4.717   3.518  0.8486  0.0535 -1.4011
  123POPC  C21016413   4.825   4.896   3.503 -0.3369  0.2227  0.1309
  123POPC  H10116414   4.730   4.845   3.482 -1.1179  1.9536 -0.6824
  123POPC  C21116415   4.818   5.046   3.499 -0.3751  0.2335  0.5436
  123POPC  H11R16416   4.712   5.070   3.475  0.1167  0.5906 -1.3941
  123POPC  H11S16417   4.881   5.076   3.412 -1.5527  0.6803 -0.1808
  123POPC  C21216418   4.850   5.138   3.616  1.1222  0.2162  0.1534
  123POPC  H12R16419   4.847   5.239   3.571  1.0962 -0.4317 -1.3125
  123POPC  H12S16420   4.953   5.121   3.656  1.0970 -1.5400 -0.5276
  123POPC  C21316421   4.751   5.145   3.733  0.3506  0.0911 -0.4864
  123POPC  H13R16422   4.741   5.038   3.759 -2.1126  0.2217 -0.8280
  123POPC  H13S16423   4.660   5.198   3.699  0.4778  1.0713  0.6366
  123POPC  C21416424   4.814   5.218   3.853  0.2703 -0.0027 -0.3874
  123POPC  H14R16425   4.850   5.322   3.839 -0.6886  0.3643 -0.1868
  123POPC  H14S16426   4.897   5.150   3.881 -0.2301  0.0702  1.3508
  123POPC  C21516427   4.717   5.205   3.971  0.1924 -0.1191 -0.4628
  123POPC  H15R16428   4.663   5.109   3.955 -0.2127 -0.2032  1.3895
  123POPC  H15S16429   4.637   5.281   3.977  1.0619  0.8082 -0.5201
  123POPC  C21616430   4.791   5.195   4.104 -0.4904  0.2499 -0.0580
  123POPC  H16R16431   4.844   5.097   4.104 -1.1089 -0.0984 -2.6094
  123POPC  H16S16432   4.712   5.182   4.181 -0.7744 -1.2760 -0.5968
  123POPC  C21716433   4.887   5.306   4.146  0.1594 -0.1390 -0.5246
  123POPC  H17R16434   4.829   5.399   4.131 -0.0173 -0.3765 -1.3542
  123POPC  H17S16435   4.965   5.318   4.067 -0.2482  1.2316 -0.7268
  123POPC  C21816436   4.949   5.295   4.286  0.2525  0.0233 -0.5538
  123POPC  H18R16437   4.984   5.398   4.310  0.4347 -0.0629 -0.4567
  123POPC  H18S16438   5.019   5.211   4.302 -0.0035 -0.2598 -0.9131
  123POPC  H18T16439   4.867   5.277   4.359  0.5477 -2.4829 -0.8051
  123POPC   C3316440   6.122   5.041   3.322 -0.0772  0.2326 -0.3852
  123POPC   H3X16441   6.040   4.970   3.297 -0.3820 -1.0620  3.8550
  123POPC   H3Y16442   6.082   5.143   3.302  0.3689  0.3346 -0.7313
  123POPC   C3416443   6.160   5.017   3.468  0.3334  0.3821 -0.4672
  123POPC   H4X16444   6.231   5.101   3.481  0.8902  0.1236 -1.8043
  123POPC   H4Y16445   6.228   4.929   3.474 -2.1395 -1.6116 -0.6163
  123POPC   C3516446   6.056   5.027   3.580 -0.2240 -0.2786 -0.9225
  123POPC   H5X16447   6.094   5.018   3.684 -1.3827  0.0032 -0.4683
  123POPC   H5Y16448   5.987   4.940   3.569 -2.8956  1.3918  1.7833
  123POPC   C3616449   5.967   5.146   3.547  0.0877  0.1551 -0.2192
  123POPC   H6X16450   5.909   5.122   3.455 -0.3245 -1.2738  0.4077
  123POPC   H6Y16451   6.025   5.240   3.538  0.3578  0.0001 -0.0861
  123POPC   C3716452   5.853   5.163   3.648 -0.1721 -0.1252 -0.4618
  123POPC   H7X16453   5.893   5.147   3.750 -2.2854 -1.6170  0.1705
  123POPC   H7Y16454   5.774   5.088   3.627  0.2128 -0.2236 -1.6349
  123POPC   C3816455   5.792   5.303   3.659 -0.5778 -0.3595  0.2826
  123POPC   H8X16456   5.874   5.366   3.698  0.7184 -0.6375 -1.8949
  123POPC   H8Y16457   5.705   5.304   3.728 -2.3369  1.2450 -1.8799
  123POPC   C3916458   5.751   5.364   3.524  0.3219  0.2607  0.2881
  123POPC   H9X16459   5.827   5.365   3.443 -0.3873  0.1375 -0.3804
  123POPC   H9Y16460   5.721   5.469   3.544 -2.2270 -0.2791 -0.4645
  123POPC  C31016461   5.640   5.286   3.453  0.8554  0.1683 -0.4505
  123POPC  H10X16462   5.562   5.266   3.529  0.8765  4.0580  0.6842
  123POPC  H10Y16463   5.682   5.188   3.422  2.1391  0.3230  0.7382
  123POPC  C31116464   5.577   5.368   3.340 -0.3042 -0.1239 -0.0174
  123POPC  H11X16465   5.503   5.299   3.294  0.7878 -0.4244 -1.3533
  123POPC  H11Y16466   5.660   5.395   3.272  1.5743 -0.4916  2.0417
  123POPC  C31216467   5.507   5.499   3.375  0.1107  0.0727  0.0694
  123POPC  H12X16468   5.580   5.561   3.433  2.1713 -1.9204 -0.3390
  123POPC  H12Y16469   5.427   5.481   3.450 -0.6301  0.3073 -0.6555
  123POPC  C31316470   5.467   5.575   3.248  0.1369  0.3562  0.2278
  123POPC  H13X16471   5.384   5.646   3.268 -1.2722 -0.5607 -2.2287
  123POPC  H13Y16472   5.426   5.497   3.181 -0.1546  0.1757  0.6115
  123POPC  C31416473   5.577   5.659   3.183  0.4389  0.2476  0.5889
  123POPC  H14X16474   5.540   5.700   3.087 -4.3068 -0.8573  1.8064
  123POPC  H14Y16475   5.661   5.592   3.158  0.7550  0.6136  0.6666
  123POPC  C31516476   5.614   5.792   3.250 -0.1865  0.5887  0.2663
  123POPC  H15X16477   5.525   5.802   3.316  0.4750  1.0557  1.0924
  123POPC  H15Y16478   5.627   5.877   3.179  0.3041  1.2949  1.1999
  123POPC  C31616479   5.740   5.786   3.337  0.4363  0.3904 -0.6392
  123POPC  H16X16480   5.743   5.875   3.403  1.8053 -0.1444  0.0248
  123POPC  H16Y16481   5.826   5.796   3.267  2.7942  0.3738  2.1937
  123POPC  H16Z16482   5.760   5.689   3.386 -0.7475 -0.1469 -1.1931
  124POPC     N16483   5.501   5.591   1.945  0.3082  0.0615  0.3726
  124POPC   C1216484   5.452   5.453   1.983 -0.1205 -0.0449 -0.5566
  124POPC  H12A16488   5.490   5.390   1.904 -1.5456 -1.1718 -0.3511
  124POPC  H12B16489   5.344   5.455   1.982 -0.1159 -0.1756 -2.3990
  124POPC   C1316485   5.421   5.698   2.016 -0.1235 -0.3283  0.4718
  124POPC  H13A16490   5.449   5.699   2.120 -0.9211  2.1912  0.6963
  124POPC  H13B16491   5.437   5.795   1.972  1.9205 -0.7160  0.3185
  124POPC  H13C16492   5.314   5.681   2.019 -0.5711  2.5298  1.8672
  124POPC   C1416486   5.649   5.611   1.968  0.3138  0.8499 -0.3169
  124POPC  H14A16493   5.670   5.713   1.940 -1.3251  1.0744 -0.7872
  124POPC  H14B16494   5.677   5.582   2.069 -2.2029 -1.1565 -0.1351
  124POPC  H14C16495   5.712   5.557   1.899  1.3023  1.4548  0.1150
  124POPC   C1516487   5.468   5.610   1.799  0.2095  0.0873  0.3976
  124POPC  H15A16496   5.360   5.604   1.793  0.3847 -1.1217 -2.0751
  124POPC  H15B16497   5.516   5.538   1.734 -0.0264 -0.0259  0.3494
  124POPC  H15C16498   5.510   5.702   1.762  1.3246 -1.2108 -1.6739
  124POPC   C1116499   5.490   5.392   2.118  0.3874  0.1966 -0.5875
  124POPC  H11A16500   5.601   5.398   2.119  0.3634  0.5910  1.6963
  124POPC  H11B16501   5.454   5.287   2.120  1.3471 -0.1782 -2.1736
  124POPC     P16502   5.525   5.516   2.347 -0.3987  0.0227 -0.0765
  124POPC   O1316503   5.592   5.644   2.314 -0.0652 -0.2191 -0.3463
  124POPC   O1416504   5.616   5.405   2.383  0.8116  0.8774 -0.4660
  124POPC   O1216505   5.433   5.469   2.225  0.1413 -0.2947 -0.3618
  124POPC   O1116506   5.425   5.540   2.469 -0.5056 -0.2298 -0.1152
  124POPC    C116507   5.376   5.666   2.514  0.0307 -0.0999  0.1162
  124POPC    HA16508   5.270   5.659   2.479  0.2207  2.1792 -1.0091
  124POPC    HB16509   5.427   5.747   2.458 -1.5562  1.2903  0.6065
  124POPC    C216510   5.389   5.707   2.662  0.0818 -0.0321  0.0931
  124POPC    HS16511   5.356   5.812   2.677  2.4157  1.1751 -2.5822
  124POPC   O2116512   5.524   5.673   2.695  0.0530 -0.3372 -0.0958
  124POPC   C2116513   5.607   5.776   2.676 -0.4583  0.0738 -0.1097
  124POPC   O2216514   5.572   5.887   2.639 -0.1990  0.2861  0.2720
  124POPC   C2216515   5.748   5.736   2.716 -0.6333 -0.1623  0.2696
  124POPC   H2R16516   5.803   5.703   2.626  1.2289  2.5694  0.3211
  124POPC   H2S16517   5.750   5.655   2.792 -1.8549 -2.2372 -1.8594
  124POPC    C316518   5.303   5.610   2.744 -0.3466 -0.0717 -0.4005
  124POPC    HX16519   5.358   5.516   2.763 -1.3710 -0.7788 -0.9014
  124POPC    HY16520   5.212   5.584   2.686 -0.0818  0.3138 -0.9946
  124POPC   O3116521   5.270   5.674   2.868  0.2080 -0.3017 -0.1375
  124POPC   C3116522   5.144   5.668   2.911  0.1405  0.4649 -0.2305
  124POPC   O3216523   5.060   5.595   2.860  0.1929  0.2719 -0.0409
  124POPC   C3216524   5.113   5.774   3.015 -0.0252  0.1724  0.0171
  124POPC   H2X16525   5.009   5.812   3.006 -1.0115 -1.9997  1.6505
  124POPC   H2Y16526   5.192   5.851   3.007 -1.5613  1.5877 -2.0101
  124POPC   C2316527   5.804   5.861   2.785  0.2628 -0.3797 -0.0609
  124POPC   H3R16528   5.727   5.899   2.856 -0.0301 -1.9984  0.5204
  124POPC   H3S16529   5.829   5.936   2.708 -2.1885 -1.1877 -1.6827
  124POPC   C2416530   5.932   5.833   2.865  0.3638 -0.1506 -0.1430
  124POPC   H4R16531   5.998   5.778   2.795 -0.7346 -1.9673  0.2157
  124POPC   H4S16532   5.901   5.762   2.944 -2.7473  0.0570 -1.1165
  124POPC   C2516533   6.008   5.959   2.908  0.2098 -0.2909  0.5547
  124POPC   H5R16534   5.954   6.030   2.974 -1.7304 -0.4270 -0.8313
  124POPC   H5S16535   6.021   6.022   2.817 -1.8080 -1.2006 -0.3878
  124POPC   C2616536   6.145   5.924   2.965  0.6618  0.0620 -0.2982
  124POPC   H6R16537   6.215   6.010   2.955  2.1985 -1.2570 -0.9677
  124POPC   H6S16538   6.181   5.841   2.901 -2.0255 -1.2922 -0.1259
  124POPC   C2716539   6.130   5.879   3.111  0.6550  0.0613 -0.2985
  124POPC   H7R16540   6.239   5.875   3.135  0.4659  1.9621  0.9490
  124POPC   H7S16541   6.081   5.779   3.115  2.1181 -0.6298  1.0129
  124POPC   C2816542   6.067   5.984   3.202 -0.0001 -0.4822 -0.1249
  124POPC   H8R16543   5.969   6.024   3.166 -0.0878  0.8574  1.5636
  124POPC   H8S16544   6.135   6.070   3.188  1.5934 -1.7997 -0.6677
  124POPC   C2916545   6.060   5.936   3.344 -0.1442 -0.0847  0.0038
  124POPC   H9116546   5.969   5.883   3.374 -0.2420 -0.5091 -1.0071
  124POPC  C21016547   6.161   5.944   3.432 -0.2466  0.9864  0.0196
  124POPC  H10116548   6.152   5.901   3.532  1.6469 -1.5203 -0.8493
  124POPC  C21116549   6.294   6.012   3.418  0.3952 -0.2936 -0.1579
  124POPC  H11R16550   6.298   6.082   3.332 -0.0749 -2.2495 -1.8003
  124POPC  H11S16551   6.374   5.943   3.385  1.3761  0.9172 -0.3692
  124POPC  C21216552   6.356   6.074   3.544 -0.6542  0.3569  0.0468
  124POPC  H12R16553   6.364   5.989   3.615 -0.7706 -0.8562 -1.3649
  124POPC  H12S16554   6.298   6.154   3.594  0.4870  0.4000  1.3367
  124POPC  C21316555   6.493   6.138   3.520 -0.4182 -0.1377  0.0668
  124POPC  H13R16556   6.485   6.222   3.447 -1.4126 -0.4574 -0.2072
  124POPC  H13S16557   6.540   6.049   3.472 -1.3369  1.0410 -3.1746
  124POPC  C21416558   6.574   6.197   3.636  0.1542 -0.6721 -0.0562
  124POPC  H14R16559   6.505   6.251   3.704  0.7433  1.1233 -0.8497
  124POPC  H14S16560   6.639   6.277   3.596 -0.9836  0.8935  1.1887
  124POPC  C21516561   6.656   6.090   3.708 -0.0674 -0.1648  0.9506
  124POPC  H15R16562   6.702   6.025   3.631 -3.3265 -1.7177  0.2161
  124POPC  H15S16563   6.591   6.011   3.753  2.1838 -2.3947  0.3899
  124POPC  C21616564   6.762   6.148   3.802  0.6250  0.0943  0.0136
  124POPC  H16R16565   6.827   6.220   3.749 -0.0132  0.3980 -0.3634
  124POPC  H16S16566   6.824   6.066   3.845 -3.0712 -2.5083  0.6215
  124POPC  C21716567   6.704   6.219   3.924  0.7057  0.9258 -0.4335
  124POPC  H17R16568   6.634   6.147   3.972 -0.1450 -0.0086 -3.0134
  124POPC  H17S16569   6.639   6.307   3.900 -0.5421  0.6561  1.7894
  124POPC  C21816570   6.811   6.276   4.017  1.0203 -0.2181 -0.0861
  124POPC  H18R16571   6.884   6.337   3.960  0.2944 -0.5870 -1.4292
  124POPC  H18S16572   6.864   6.200   4.078  0.5564  0.8270  1.6667
  124POPC  H18T16573   6.762   6.344   4.091  1.1904 -0.4152  0.2094
  124POPC   C3316574   5.103   5.714   3.156 -0.4054 -0.0310 -0.0941
  124POPC   H3X16575   5.200   5.664   3.178 -0.7144 -0.3960  0.4445
  124POPC   H3Y16576   5.027   5.633   3.153  1.2659 -1.6256 -0.9812
  124POPC   C3416577   5.055   5.803   3.271  0.4182 -0.0887  0.2951
  124POPC   H4X16578   4.962   5.848   3.231  0.8905  1.6772  1.1511
  124POPC   H4Y16579   5.139   5.871   3.295 -1.4063  1.7368  1.6668
  124POPC   C3516580   5.019   5.737   3.404 -0.0537 -0.3148  0.0559
  124POPC   H5X16581   5.112   5.690   3.442  0.6703  1.8727  1.0936
  124POPC   H5Y16582   4.943   5.661   3.378  0.9200 -1.2210 -0.1652
  124POPC   C3616583   4.959   5.839   3.501 -0.0658 -0.0569 -0.2224
  124POPC   H6X16584   4.866   5.873   3.451 -0.5819  1.2210  1.5459
  124POPC   H6Y16585   5.020   5.932   3.514  0.8623 -0.4194 -1.8252
  124POPC   C3716586   4.925   5.773   3.634 -0.4044  0.3359 -0.1135
  124POPC   H7X16587   5.008   5.731   3.694 -1.4345 -2.2046 -0.4194
  124POPC   H7Y16588   4.860   5.687   3.607 -1.6275  1.0945  0.3594
  124POPC   C3816589   4.838   5.864   3.722 -0.6981  0.2361 -0.3026
  124POPC   H8X16590   4.779   5.794   3.785  0.7608 -2.0635 -1.4239
  124POPC   H8Y16591   4.771   5.926   3.658 -0.0915 -0.0409 -1.2135
  124POPC   C3916592   4.924   5.962   3.801 -0.0410 -0.5289 -0.0681
  124POPC   H9X16593   4.853   6.026   3.857  0.2903  0.8204 -1.1524
  124POPC   H9Y16594   4.986   6.028   3.737  0.4293 -0.5155  0.3927
  124POPC  C31016595   5.019   5.892   3.899  0.2620 -0.5952 -0.4087
  124POPC  H10X16596   5.096   5.833   3.845  1.4133  0.1977  0.3341
  124POPC  H10Y16597   4.954   5.832   3.966  1.4313  0.2431  1.5183
  124POPC  C31116598   5.087   5.988   3.998 -0.0408 -0.9737  0.1672
  124POPC  H11X16599   5.021   5.999   4.087  0.4251 -0.9069  0.5044
  124POPC  H11Y16600   5.096   6.079   3.935 -0.9941 -1.2078 -0.3269
  124POPC  C31216601   5.224   5.942   4.048  0.3418 -0.4399 -0.3860
  124POPC  H12X16602   5.292   6.011   4.102  2.5039 -2.5256 -0.3599
  124POPC  H12Y16603   5.282   5.912   3.958  1.0968 -1.5529  0.4542
  124POPC  C31316604   5.209   5.814   4.130 -0.4216 -0.4550 -0.5458
  124POPC  H13X16605   5.132   5.754   4.077 -0.8364  0.1133 -0.5808
  124POPC  H13Y16606   5.164   5.843   4.227  0.4271 -2.2224  0.4068
  124POPC  C31416607   5.333   5.724   4.139 -0.0820  0.0342 -0.3129
  124POPC  H14X16608   5.422   5.770   4.188  1.9672 -1.4346 -2.5685
  124POPC  H14Y16609   5.362   5.698   4.035  1.1620  0.4605 -0.0753
  124POPC  C31516610   5.313   5.602   4.229  0.0510  0.0260 -0.2971
  124POPC  H15X16611   5.285   5.620   4.335  1.3476 -0.2538  0.1092
  124POPC  H15Y16612   5.411   5.548   4.229  1.8646  3.1074  3.4050
  124POPC  C31616613   5.209   5.504   4.175  0.1477 -0.0979 -0.2594
  124POPC  H16X16614   5.236   5.481   4.070  0.7877 -1.9019  0.2722
  124POPC  H16Y16615   5.110   5.553   4.175  0.9376  1.5774 -3.5635
  124POPC  H16Z16616   5.196   5.411   4.236 -4.1155  1.3063  1.1693
  125POPC     N16617   0.964   4.286   2.188 -0.0148  0.2869  0.5142
  125POPC   C1216618   0.897   4.398   2.111 -0.3768  0.0254  0.4490
  125POPC  H12A16622   0.875   4.361   2.012 -2.4596 -1.3611  1.3898
  125POPC  H12B16623   0.960   4.484   2.093  0.0389 -0.5765 -1.0628
  125POPC   C1316619   0.888   4.157   2.173 -0.1902  0.4437  0.0494
  125POPC  H13A16624   0.937   4.089   2.241 -2.2208 -1.2900 -0.1479
  125POPC  H13B16625   0.786   4.165   2.207 -0.1746 -2.4233  0.9172
  125POPC  H13C16626   0.894   4.113   2.074  1.6711 -2.2080  1.2716
  125POPC   C1416620   1.104   4.274   2.131  0.1066 -0.3858  0.9393
  125POPC  H14A16627   1.169   4.203   2.178  0.6545 -0.1584  0.5350
  125POPC  H14B16628   1.082   4.251   2.027  2.8041 -0.5837  0.3760
  125POPC  H14C16629   1.139   4.376   2.138 -0.2336 -0.1940  0.0275
  125POPC   C1516621   0.979   4.330   2.332  0.0041 -0.1289  0.6398
  125POPC  H15A16630   1.030   4.426   2.337  0.2459 -0.1913 -0.3834
  125POPC  H15B16631   1.045   4.263   2.384  0.6627  1.1547  1.4897
  125POPC  H15C16632   0.880   4.334   2.373 -0.2228 -2.1788  0.3337
  125POPC   C1116633   0.767   4.450   2.172 -0.3955  0.7980 -0.2559
  125POPC  H11A16634   0.719   4.515   2.095  1.1964  1.7139 -0.5056
  125POPC  H11B16635   0.800   4.517   2.254 -1.8290  0.4380  0.6240
  125POPC     P16636   0.572   4.399   2.328  0.0819  0.1066  0.0304
  125POPC   O1316637   0.486   4.501   2.265  0.4616  0.3453 -0.1088
  125POPC   O1416638   0.657   4.440   2.442  0.3184 -0.2918 -0.0018
  125POPC   O1216639   0.676   4.349   2.217 -0.0802  0.4956 -0.2966
  125POPC   O1116640   0.493   4.268   2.372  0.2284  0.1082  0.2988
  125POPC    C116641   0.350   4.273   2.386  0.1968  0.2111 -0.0545
  125POPC    HA16642   0.299   4.213   2.308 -1.2697  1.6287 -0.1994
  125POPC    HB16643   0.314   4.376   2.370 -3.2921 -1.1079 -1.1463
  125POPC    C216644   0.283   4.249   2.523  0.7204 -0.4795  0.0879
  125POPC    HS16645   0.175   4.274   2.521  0.4653 -1.4849  0.9040
  125POPC   O2116646   0.357   4.310   2.628 -0.1595 -0.0103  0.4401
  125POPC   C2116647   0.318   4.434   2.658 -0.4902 -0.1184  0.4610
  125POPC   O2216648   0.239   4.503   2.596 -0.0747  0.2911  0.3806
  125POPC   C2216649   0.400   4.480   2.778 -0.2714 -0.0622  0.2917
  125POPC   H2R16650   0.495   4.426   2.763 -0.8645 -1.2186  0.6251
  125POPC   H2S16651   0.352   4.444   2.872  0.8127  0.4687  1.0647
  125POPC    C316652   0.292   4.099   2.556  0.3763 -0.6073 -0.3879
  125POPC    HX16653   0.399   4.068   2.562  0.9150  1.1886 -0.4994
  125POPC    HY16654   0.257   4.023   2.483 -0.2010 -2.6538  1.9655
  125POPC   O3116655   0.225   4.084   2.681  0.4161 -0.2421 -0.3223
  125POPC   C3116656   0.281   3.995   2.764  0.5141 -0.1170 -0.2540
  125POPC   O3216657   0.342   3.897   2.726  0.6569 -0.1946  0.1769
  125POPC   C3216658   0.243   4.042   2.903  0.2174 -0.1085 -0.3370
  125POPC   H2X16659   0.134   4.042   2.924 -0.3569  3.7222 -2.7156
  125POPC   H2Y16660   0.260   4.152   2.910  1.3535 -0.3755  1.7076
  125POPC   C2316661   0.407   4.633   2.781  0.0175 -0.0695  0.0783
  125POPC   H3R16662   0.305   4.677   2.770  0.8727  1.8138 -0.3959
  125POPC   H3S16663   0.444   4.675   2.686 -0.2152  0.8842  0.4036
  125POPC   C2416664   0.473   4.690   2.907  0.1347  0.0888 -0.0546
  125POPC   H4R16665   0.577   4.721   2.886  1.0452 -0.4668  3.2716
  125POPC   H4S16666   0.463   4.616   2.990  0.7797  1.1794  1.0087
  125POPC   C2516667   0.403   4.818   2.952  0.3255  0.1030  0.2011
  125POPC   H5R16668   0.311   4.796   3.011 -0.0894  2.8484  0.6404
  125POPC   H5S16669   0.366   4.878   2.867  2.4584 -1.0386 -1.5900
  125POPC   C2616670   0.492   4.897   3.048  0.3212  0.6575 -0.2514
  125POPC   H6R16671   0.579   4.933   2.988 -0.8864  2.5383 -0.9058
  125POPC   H6S16672   0.544   4.824   3.114 -1.0185 -0.6228 -0.6001
  125POPC   C2716673   0.424   5.001   3.138  0.1781  0.1621  0.2153
  125POPC   H7R16674   0.499   5.034   3.213  1.1245 -1.0442 -0.1688
  125POPC   H7S16675   0.349   4.939   3.191  0.5301  0.1247  0.6775
  125POPC   C2816676   0.359   5.118   3.065  0.4169  0.3586  0.3174
  125POPC   H8R16677   0.295   5.074   2.985 -1.4628  1.3458  1.2399
  125POPC   H8S16678   0.435   5.192   3.031 -0.0683  1.3190  1.2857
  125POPC   C2916679   0.259   5.187   3.153 -0.1942  0.7189 -0.6415
  125POPC   H9116680   0.154   5.182   3.121 -0.5663 -0.3889  0.6889
  125POPC  C21016681   0.292   5.242   3.270 -0.2035 -0.8720  0.1313
  125POPC  H10116682   0.209   5.282   3.330 -0.8242 -0.5936 -0.9146
  125POPC  C21116683   0.431   5.275   3.316 -0.1589 -0.4045 -0.3282
  125POPC  H11R16684   0.513   5.229   3.256 -0.4920  1.1120 -1.9696
  125POPC  H11S16685   0.433   5.236   3.420 -0.0158  2.0180  0.6056
  125POPC  C21216686   0.457   5.424   3.333 -0.1325 -0.4730  0.2365
  125POPC  H12R16687   0.386   5.461   3.411  0.6281  0.9378  0.2913
  125POPC  H12S16688   0.448   5.491   3.244 -1.5592 -0.1712  0.5867
  125POPC  C21316689   0.597   5.469   3.376 -0.0910  0.0495 -0.4384
  125POPC  H13R16690   0.656   5.454   3.283  1.2852 -1.4122  0.6360
  125POPC  H13S16691   0.635   5.409   3.461  0.3059  0.7125 -0.1440
  125POPC  C21416692   0.589   5.612   3.429  0.2950 -0.1598  0.1847
  125POPC  H14R16693   0.517   5.614   3.514  1.7236 -0.8731  1.4368
  125POPC  H14S16694   0.546   5.679   3.352  0.7003 -0.6297 -0.4486
  125POPC  C21516695   0.723   5.668   3.479  0.4137 -0.4787  0.2258
  125POPC  H15R16696   0.803   5.651   3.404 -0.2247 -2.6859  0.0253
  125POPC  H15S16697   0.743   5.607   3.569  2.4584 -1.9363 -1.1726
  125POPC  C21616698   0.712   5.814   3.525 -0.0613 -0.3265 -0.3560
  125POPC  H16R16699   0.687   5.888   3.446  1.9671 -1.2513 -1.9032
  125POPC  H16S16700   0.813   5.845   3.559  0.7728 -0.5714 -2.5620
  125POPC  C21716701   0.610   5.831   3.637 -0.1905  0.3600 -0.5778
  125POPC  H17R16702   0.650   5.894   3.719 -2.0147 -1.0164  1.4292
  125POPC  H17S16703   0.572   5.742   3.692  0.5427  0.9398  0.9012
  125POPC  C21816704   0.482   5.907   3.600 -0.7783 -0.4420 -0.2094
  125POPC  H18R16705   0.428   5.870   3.510  0.5590 -2.3728 -0.2632
  125POPC  H18S16706   0.507   6.015   3.595  0.7209 -0.6362  2.3642
  125POPC  H18T16707   0.409   5.892   3.682  0.5074 -2.0509  0.6920
  125POPC   C3316708   0.308   3.952   3.008  0.5357  0.4728 -0.0324
  125POPC   H3X16709   0.419   3.964   2.998  0.4625  1.3579  0.1391
  125POPC   H3Y16710   0.266   3.850   2.999 -2.3168  1.4294  1.9685
  125POPC   C3416711   0.285   3.984   3.156 -0.3369  0.2104 -0.1134
  125POPC   H4X16712   0.330   4.084   3.168 -1.7623  1.3980 -3.9887
  125POPC   H4Y16713   0.332   3.909   3.223  0.0422  2.0860  1.7842
  125POPC   C3516714   0.137   3.992   3.195 -0.1045  0.8865  0.6218
  125POPC   H5X16715   0.078   3.911   3.148  0.5121  1.2532 -0.8124
  125POPC   H5Y16716   0.102   4.093   3.165 -0.8772  0.6375  0.6912
  125POPC   C3616717   0.119   3.984   3.347 -0.5638 -0.1354  0.5139
  125POPC   H6X16718   0.201   4.047   3.388 -0.1650 -0.8272  0.7974
  125POPC   H6Y16719   0.143   3.882   3.385 -1.9920 -0.7696 -0.2500
  125POPC   C3716720   7.941   4.021   3.397 -0.6235 -0.0727  0.4158
  125POPC   H7X16721   7.866   3.955   3.347 -1.5864  0.8412  0.6414
  125POPC   H7Y16722   7.916   4.127   3.375  0.9614 -0.1248 -1.7826
  125POPC   C3816723   7.923   4.002   3.548  0.5060 -0.8859  0.4523
  125POPC   H8X16724   0.031   4.070   3.601 -1.3364  2.0385 -0.6700
  125POPC   H8Y16725   7.956   3.898   3.571  1.2160 -0.6382  0.5754
  125POPC   C3916726   7.780   4.026   3.595  0.3386 -0.7236 -0.1280
  125POPC   H9X16727   7.713   3.960   3.536  1.6183 -1.4682 -0.7696
  125POPC   H9Y16728   7.759   4.135   3.594  3.1853 -0.1443  0.0035
  125POPC  C31016729   7.745   3.988   3.739  0.4251 -0.3076  0.0014
  125POPC  H10X16730   7.795   4.057   3.811  0.3299  1.6237 -1.7281
  125POPC  H10Y16731   7.799   3.891   3.739 -0.0588 -0.5748 -0.6705
  125POPC  C31116732   7.595   3.964   3.760  0.3607 -0.4916 -0.6606
  125POPC  H11X16733   7.553   3.918   3.668  0.7783  1.6779 -1.9940
  125POPC  H11Y16734   7.547   4.065   3.762  0.3724 -0.4588 -1.7538
  125POPC  C31216735   7.554   3.884   3.883  0.7562 -0.1063 -0.2727
  125POPC  H12X16736   7.601   3.927   3.974 -1.6880  1.2492  0.3941
  125POPC  H12Y16737   7.594   3.782   3.862  1.3826 -0.3090  1.7679
  125POPC  C31316738   7.401   3.891   3.883  0.7641  0.1615  0.4845
  125POPC  H13X16739   7.365   3.787   3.898 -0.0405  0.1926 -1.0658
  125POPC  H13Y16740   7.357   3.926   3.787 -0.4105 -1.1574  0.5273
  125POPC  C31416741   7.342   3.982   3.991  0.0827  0.2460  0.0418
  125POPC  H14X16742   7.388   4.080   3.967  0.5833 -0.0718 -0.2940
  125POPC  H14Y16743   7.371   3.964   4.096  2.1160  4.3451  0.2675
  125POPC  C31516744   7.192   4.013   3.979  0.0719  0.1098 -0.1980
  125POPC  H15X16745   7.140   3.964   4.063  0.1408 -0.4442 -0.4714
  125POPC  H15Y16746   7.154   3.964   3.886  1.7697 -1.0325 -0.3197
  125POPC  C31616747   7.162   4.163   3.979  0.6620  0.2309 -0.3519
  125POPC  H16X16748   7.202   4.206   4.073 -1.5026  1.5107  0.0027
  125POPC  H16Y16749   7.055   4.188   3.959 -0.2147 -2.5074  0.7063
  125POPC  H16Z16750   7.207   4.207   3.887 -0.4052  0.9115 -0.5512
  126POPC     N16751   0.380   2.822   2.327  0.6925  0.0471 -0.2665
  126POPC   C1216752   0.426   2.929   2.423 -0.3439 -0.2409  0.5692
  126POPC  H12A16756   0.518   2.958   2.373  0.4789 -1.5839  1.2705
  126POPC  H12B16757   0.449   2.887   2.519  0.0051  1.2235  1.1435
  126POPC   C1316753   0.246   2.762   2.364  0.9628 -0.8180 -0.6688
  126POPC  H13A16758   0.228   2.673   2.306 -2.6441 -2.7330  3.1275
  126POPC  H13B16759   0.243   2.730   2.467  1.6456 -1.3102 -0.7951
  126POPC  H13C16760   0.172   2.837   2.341  2.0201  0.9922  1.4993
  126POPC   C1416754   0.398   2.864   2.183  0.1474 -0.6465 -0.5445
  126POPC  H14A16761   0.325   2.941   2.162  0.3381 -0.0562  0.8353
  126POPC  H14B16762   0.490   2.918   2.163 -1.9508  3.0280 -0.8392
  126POPC  H14C16763   0.386   2.784   2.112 -0.0767 -0.5746 -0.5882
  126POPC   C1516755   0.475   2.706   2.342  0.4576 -0.1334 -0.1749
  126POPC  H15A16764   0.578   2.727   2.317  0.1870  2.8235  1.0642
  126POPC  H15B16765   0.446   2.624   2.278  0.9722 -1.2975  1.0386
  126POPC  H15C16766   0.477   2.669   2.444  0.1762  2.7567  0.9303
  126POPC   C1116767   0.334   3.051   2.434 -0.2551 -0.1070 -0.1470
  126POPC  H11A16768   0.321   3.075   2.326  3.0881  0.5400 -0.4566
  126POPC  H11B16769   0.384   3.133   2.488 -0.1252  0.3425 -0.9445
  126POPC     P16770   0.108   3.133   2.485 -0.2942  0.4004 -0.1511
  126POPC   O1316771   7.930   3.092   2.507 -0.3536  0.3779 -0.3039
  126POPC   O1416772   0.134   3.217   2.366  0.0572  0.8459  0.2361
  126POPC   O1216773   0.212   3.012   2.498 -0.1742  0.5623  0.4213
  126POPC   O1116774   0.165   3.216   2.609  0.0655 -0.2225  0.1027
  126POPC    C116775   0.117   3.349   2.626  0.0284 -0.1536 -0.5359
  126POPC    HA16776   0.024   3.344   2.686 -0.3777 -1.3061 -1.2567
  126POPC    HB16777   0.091   3.403   2.532  0.3352  0.5734 -0.2057
  126POPC    C216778   0.217   3.442   2.696 -0.2875 -0.1759 -0.0521
  126POPC    HS16779   0.290   3.479   2.620 -0.4874  1.7174  0.6556
  126POPC   O2116780   0.269   3.358   2.800  0.2250  0.3078  0.0854
  126POPC   C2116781   0.385   3.296   2.778  0.0290 -0.0380  0.0230
  126POPC   O2216782   0.460   3.318   2.684 -0.2203  0.0586 -0.1526
  126POPC   C2216783   0.402   3.193   2.889 -0.3793  0.0369  0.1564
  126POPC   H2R16784   0.368   3.097   2.844  2.1997  0.6551 -3.3500
  126POPC   H2S16785   0.339   3.228   2.973  2.5736  1.3360  1.9006
  126POPC    C316786   0.165   3.578   2.745  0.4711  0.0590  0.1156
  126POPC    HX16787   0.122   3.638   2.661  2.1816  2.3188  0.7819
  126POPC    HY16788   0.250   3.623   2.801  2.0480 -1.1001 -1.3084
  126POPC   O3116789   0.050   3.575   2.829  0.1115  0.0349 -0.3721
  126POPC   C3116790   0.012   3.699   2.862  0.0010 -0.0691 -0.1040
  126POPC   O3216791   0.057   3.803   2.816 -0.2171 -0.0321 -0.2363
  126POPC   C3216792   7.863   3.689   2.966 -0.0580  0.5271 -0.0622
  126POPC   H2X16793   7.915   3.676   3.063  1.4465  1.1986 -0.7522
  126POPC   H2Y16794   7.808   3.595   2.946  0.0327  0.6853 -1.1009
  126POPC   C2316795   0.553   3.185   2.915 -0.4474 -0.7674  0.3235
  126POPC   H3R16796   0.591   3.290   2.915  0.6549 -1.1551  1.4334
  126POPC   H3S16797   0.599   3.136   2.827  1.7669  0.1227  0.9458
  126POPC   C2416798   0.593   3.120   3.047  0.3688 -0.1525  0.3844
  126POPC   H4R16799   0.704   3.110   3.051  0.4224  0.5305  0.6786
  126POPC   H4S16800   0.544   3.021   3.061  1.2155 -0.7823 -1.0372
  126POPC   C2516801   0.542   3.207   3.162  0.2019  0.6710 -0.3063
  126POPC   H5R16802   0.432   3.218   3.165  0.1146 -0.0879 -0.6419
  126POPC   H5S16803   0.586   3.308   3.146  1.4299  0.0200 -1.1653
  126POPC   C2616804   0.598   3.151   3.293 -0.3926  0.2633 -0.2254
  126POPC   H6R16805   0.709   3.157   3.294 -0.4474  1.3775 -0.4060
  126POPC   H6S16806   0.572   3.045   3.315 -0.3314  0.1579 -0.6622
  126POPC   C2716807   0.569   3.234   3.419  0.2465 -0.0672  0.1453
  126POPC   H7R16808   0.461   3.219   3.438  0.0810  2.2758  1.1737
  126POPC   H7S16809   0.593   3.339   3.391 -0.4239 -1.0298 -4.4785
  126POPC   C2816810   0.642   3.196   3.547 -0.4532 -0.9505  0.2867
  126POPC   H8R16811   0.750   3.224   3.548 -0.6318 -0.1595 -1.6480
  126POPC   H8S16812   0.625   3.089   3.572 -1.3932 -0.9584 -0.3800
  126POPC   C2916813   0.582   3.286   3.651 -0.2403 -0.1194 -0.3044
  126POPC   H9116814   0.581   3.394   3.628  1.3371 -0.3838 -1.7287
  126POPC  C21016815   0.535   3.248   3.770  0.3661 -0.1824 -0.0851
  126POPC  H10116816   0.474   3.316   3.832 -0.4346 -2.6475  1.9592
  126POPC  C21116817   0.536   3.106   3.821 -0.5109 -0.1301  0.0909
  126POPC  H11R16818   0.541   3.034   3.736 -1.1040  1.2818 -1.1699
  126POPC  H11S16819   0.440   3.080   3.871  0.2503  2.0015  2.7537
  126POPC  C21216820   0.650   3.076   3.918 -0.1579 -0.2417 -0.3528
  126POPC  H12R16821   0.656   2.967   3.936 -0.3826 -0.2331 -0.2205
  126POPC  H12S16822   0.633   3.122   4.018 -1.9335 -1.0336 -0.2736
  126POPC  C21316823   0.781   3.140   3.874  0.1599 -0.5415  0.1500
  126POPC  H13R16824   0.783   3.251   3.878 -2.7600 -0.4722  0.1562
  126POPC  H13S16825   0.803   3.112   3.769 -2.8623 -0.0879 -0.6504
  126POPC  C21416826   0.899   3.104   3.965 -0.0147 -0.5451  0.3736
  126POPC  H14R16827   0.987   3.153   3.918  0.0965  0.3259  1.4563
  126POPC  H14S16828   0.908   2.996   3.942  2.7254  0.1795 -2.2342
  126POPC  C21516829   0.899   3.141   4.113 -0.0930 -0.3036  0.3141
  126POPC  H15R16830   0.805   3.094   4.148  0.5110 -1.6660  0.1278
  126POPC  H15S16831   0.892   3.252   4.120  0.5251 -0.2725  0.5098
  126POPC  C21616832   1.008   3.073   4.197  0.1641 -0.3442 -0.0514
  126POPC  H16R16833   1.111   3.102   4.167  0.5414 -0.7685  0.8169
  126POPC  H16S16834   1.006   2.964   4.173  0.5547 -0.5754  0.9495
  126POPC  C21716835   0.988   3.093   4.347 -0.0501  0.6106 -0.2017
  126POPC  H17R16836   0.911   3.016   4.371 -0.4363  1.2408  0.6125
  126POPC  H17S16837   0.947   3.195   4.365 -0.0080  0.5279  0.3883
  126POPC  C21816838   1.120   3.083   4.424 -0.2132  0.4228  0.0563
  126POPC  H18R16839   1.186   3.168   4.399 -0.5017 -0.1184 -2.7268
  126POPC  H18S16840   1.171   2.986   4.405 -1.7878  0.1145 -2.9189
  126POPC  H18T16841   1.093   3.089   4.531  1.6945 -0.5848  0.6243
  126POPC   C3316842   7.766   3.806   2.982 -0.3747  0.2813 -0.1892
  126POPC   H3X16843   7.712   3.823   2.886  1.8590  0.3006 -1.4894
  126POPC   H3Y16844   7.816   3.900   3.012 -2.3667  0.9730  1.0435
  126POPC   C3416845   7.668   3.789   3.098 -0.4907 -0.5040 -0.3953
  126POPC   H4X16846   7.725   3.758   3.189 -0.1293 -2.8734 -1.3997
  126POPC   H4Y16847   7.588   3.720   3.065 -0.0304  0.1659 -2.9909
  126POPC   C3516848   7.586   3.910   3.144  0.0129 -0.2547 -0.1388
  126POPC   H5X16849   7.526   3.942   3.056  0.8500  1.5917 -0.0422
  126POPC   H5Y16850   7.657   3.992   3.165 -0.9881  0.6184 -0.1226
  126POPC   C3616851   7.480   3.875   3.248 -0.2924 -0.0642 -0.3842
  126POPC   H6X16852   7.524   3.798   3.315  0.2713 -0.0864 -0.7830
  126POPC   H6Y16853   7.386   3.824   3.215  0.9998 -2.7263 -0.0725
  126POPC   C3716854   7.429   3.997   3.325  0.0963 -0.6106  0.7503
  126POPC   H7X16855   7.379   4.061   3.249 -1.4833  1.2058  3.2280
  126POPC   H7Y16856   7.521   4.050   3.357  0.4317  1.4386 -3.3099
  126POPC   C3816857   7.338   3.969   3.445 -0.9301 -0.0079  0.1231
  126POPC   H8X16858   7.291   4.064   3.477 -0.9461 -0.5863  1.8614
  126POPC   H8Y16859   7.413   3.935   3.520  0.6750  1.3225 -0.8449
  126POPC   C3916860   7.226   3.866   3.434 -0.5309 -0.4283 -0.0366
  126POPC   H9X16861   7.282   3.770   3.442  0.8856  0.3051 -1.1161
  126POPC   H9Y16862   7.183   3.866   3.332 -0.3802  0.6364 -0.0986
  126POPC  C31016863   7.132   3.876   3.555 -0.6095 -0.4225 -0.0987
  126POPC  H10X16864   7.071   3.966   3.532 -0.5943 -1.0082 -2.5661
  126POPC  H10Y16865   7.179   3.879   3.655 -1.6088 -2.3827  0.4764
  126POPC  C31116866   7.041   3.753   3.568  0.2570 -1.0459  0.1602
  126POPC  H11X16867   7.100   3.659   3.566 -0.6831 -1.6324 -2.3499
  126POPC  H11Y16868   6.968   3.759   3.484  1.2181 -0.7918 -0.6583
  126POPC  C31216869   6.960   3.741   3.697  0.0668 -0.5013  0.0941
  126POPC  H12X16870   7.019   3.747   3.791  0.6984  1.3968 -0.3974
  126POPC  H12Y16871   6.898   3.650   3.683 -1.6516  0.9085 -1.5812
  126POPC  C31316872   6.856   3.853   3.703  0.1973 -0.3809  0.1173
  126POPC  H13X16873   6.775   3.840   3.628 -0.7364  1.1024  0.8356
  126POPC  H13Y16874   6.904   3.953   3.692 -1.3190 -0.0118 -3.9963
  126POPC  C31416875   6.776   3.847   3.833 -0.2662 -0.3828 -0.1679
  126POPC  H14X16876   6.848   3.856   3.918  0.2386  0.0359 -0.6378
  126POPC  H14Y16877   6.726   3.749   3.845 -0.3491 -0.2970  0.2122
  126POPC  C31516878   6.667   3.955   3.842  0.0554 -0.0452 -0.3118
  126POPC  H15X16879   6.622   3.937   3.941 -1.1587  1.0238 -0.6672
  126POPC  H15Y16880   6.596   3.941   3.758  1.1828  2.2554 -1.7007
  126POPC  C31616881   6.722   4.097   3.826  0.4056 -0.0921  0.4468
  126POPC  H16X16882   6.807   4.119   3.894  0.4340 -1.7196  0.9618
  126POPC  H16Y16883   6.639   4.170   3.838 -1.3096 -2.2614  2.3235
  126POPC  H16Z16884   6.746   4.109   3.718  1.3591 -2.0407  0.4241
  127POPC     N16885   7.851   2.089   1.931 -0.2075 -0.2880 -0.0339
  127POPC   C1216886   7.732   2.121   1.845 -0.4115  0.2479  0.4455
  127POPC  H12A16890   7.749   2.071   1.751  1.8479 -1.0099  1.4851
  127POPC  H12B16891   7.742   2.225   1.817 -0.1209 -0.4595 -2.2113
  127POPC   C1316887   7.870   2.189   2.043 -0.2418  0.3007 -0.5544
  127POPC  H13A16892   7.886   2.287   2.001  1.5569  1.3973  2.5634
  127POPC  H13B16893   7.781   2.189   2.105 -0.7038  0.2493 -1.2116
  127POPC  H13C16894   7.950   2.153   2.105 -0.5814  1.0892  0.3983
  127POPC   C1416888   7.850   1.949   1.989  0.9169 -0.1637  0.3068
  127POPC  H14A16895   7.926   1.947   2.066 -0.3649 -2.6288  1.5673
  127POPC  H14B16896   7.756   1.927   2.038  1.5979 -2.0538  0.8093
  127POPC  H14C16897   7.882   1.874   1.918  4.2629  3.5445 -2.3830
  127POPC   C1516889   0.016   2.098   1.849 -0.0640 -0.7719  0.0662
  127POPC  H15A16898   0.001   2.181   1.781 -2.0917 -1.0349  0.1698
  127POPC  H15B16899   0.012   2.017   1.778  0.0077 -0.8438  0.1449
  127POPC  H15C16900   0.111   2.109   1.899 -1.9332 -1.2558  3.9161
  127POPC   C1116901   7.592   2.096   1.901 -0.7038 -0.0326 -0.3997
  127POPC  H11A16902   7.578   1.987   1.919  1.3878  0.0440  2.0863
  127POPC  H11B16903   7.519   2.137   1.828  1.0832 -0.4845 -2.4842
  127POPC     P16904   7.452   2.116   2.108  0.2707 -0.2157 -0.0152
  127POPC   O1316905   7.476   1.975   2.144 -0.3776 -0.4513 -0.4921
  127POPC   O1416906   7.324   2.138   2.036  0.2841  0.2476  0.0973
  127POPC   O1216907   7.577   2.169   2.023 -0.1828  0.1612 -0.4520
  127POPC   O1116908   7.442   2.202   2.242  0.0410  0.2609 -0.3361
  127POPC    C116909   7.499   2.333   2.254  0.3980  0.1012 -0.2938
  127POPC    HA16910   7.442   2.390   2.331  0.3814 -1.2047  0.6974
  127POPC    HB16911   7.492   2.376   2.152  1.7497 -0.0480 -0.4586
  127POPC    C216912   7.644   2.322   2.305  0.2306 -0.3987  0.0906
  127POPC    HS16913   7.707   2.319   2.214 -0.7543  3.0670 -0.7747
  127POPC   O2116914   7.658   2.198   2.374  0.1897 -0.2210  0.4163
  127POPC   C2116915   7.786   2.165   2.395  0.1919 -0.0790  0.6304
  127POPC   O2216916   7.881   2.223   2.345  0.0090 -0.3585 -0.0548
  127POPC   C2216917   7.797   2.059   2.503  0.1290 -0.5918  0.1325
  127POPC   H2R16918   7.809   1.970   2.438 -1.8992 -0.4123 -0.5335
  127POPC   H2S16919   7.705   2.036   2.560  1.7783 -2.0335  2.2777
  127POPC    C316920   7.676   2.449   2.385 -0.5091 -0.1334 -0.0263
  127POPC    HX16921   7.646   2.529   2.315 -1.9876 -1.6503 -1.1580
  127POPC    HY16922   7.786   2.451   2.404 -0.3147  1.2735 -1.1990
  127POPC   O3116923   7.611   2.453   2.512 -0.1778  0.0498  0.1405
  127POPC   C3116924   7.621   2.573   2.568 -0.5506  0.1377  0.0230
  127POPC   O3216925   7.667   2.670   2.509  0.0081 -0.1019  0.0660
  127POPC   C3216926   7.564   2.571   2.709  0.0636 -0.5453  0.2605
  127POPC   H2X16927   7.589   2.477   2.764  0.8092 -0.1705  0.5708
  127POPC   H2Y16928   7.454   2.575   2.701  0.1351  0.0464 -0.4930
  127POPC   C2316929   7.909   2.090   2.602 -0.1662  0.2831  0.1897
  127POPC   H3R16930   0.046   2.110   2.556 -0.6511 -0.5050 -1.2952
  127POPC   H3S16931   7.909   2.008   2.677  0.2842 -1.7820 -2.0171
  127POPC   C2416932   7.871   2.209   2.692 -0.1544 -0.3815  1.0799
  127POPC   H4R16933   7.794   2.161   2.756 -0.4482 -1.2832  0.0655
  127POPC   H4S16934   7.825   2.294   2.637  0.1769 -1.9049 -1.6912
  127POPC   C2516935   0.036   2.253   2.763  0.2725 -0.0290  0.1733
  127POPC   H5R16936   0.108   2.294   2.688  0.5093  0.8428  0.8680
  127POPC   H5S16937   0.089   2.165   2.805 -1.4209 -1.1768 -0.0751
  127POPC   C2616938   0.009   2.360   2.870 -0.6572  0.3637 -0.4442
  127POPC   H6R16939   7.872   2.345   2.917  0.1071 -0.6904  0.9387
  127POPC   H6S16940   0.001   2.462   2.828 -0.5322  0.6472  0.2233
  127POPC   C2716941   0.113   2.373   2.981 -0.4266 -0.0594 -0.6078
  127POPC   H7R16942   0.216   2.383   2.941 -0.2798  1.8726  0.1949
  127POPC   H7S16943   0.101   2.288   3.052 -0.3465 -0.3003 -0.8798
  127POPC   C2816944   0.083   2.498   3.065  0.4225 -0.0663 -0.2902
  127POPC   H8R16945   7.938   2.511   3.090  0.4848  0.7100 -0.2501
  127POPC   H8S16946   0.116   2.578   2.996 -2.2015  0.4222 -1.0230
  127POPC   C2916947   0.165   2.508   3.191  0.1394 -0.0179 -0.1092
  127POPC   H9116948   0.165   2.417   3.253  2.0821 -0.1191 -0.2404
  127POPC  C21016949   0.229   2.615   3.238 -0.0875  0.1388 -0.1567
  127POPC  H10116950   0.278   2.617   3.336  1.4711  0.7780 -0.9196
  127POPC  C21116951   0.237   2.747   3.166 -0.4311  0.3529  0.1963
  127POPC  H11R16952   0.133   2.760   3.129 -0.8414  1.5327  1.7276
  127POPC  H11S16953   0.303   2.745   3.076  0.4091 -2.2966  0.8321
  127POPC  C21216954   0.286   2.853   3.265 -0.6421  0.3642  0.2867
  127POPC  H12R16955   0.394   2.829   3.263 -0.5373  0.7329  1.2297
  127POPC  H12S16956   0.243   2.830   3.365 -2.2554 -0.8749 -0.6656
  127POPC  C21316957   0.258   2.996   3.216 -0.0744  0.4614  0.2433
  127POPC  H13R16958   0.281   2.985   3.108  1.1413  1.8670  0.3390
  127POPC  H13S16959   0.323   3.067   3.270  2.8534 -1.2741 -0.8854
  127POPC  C21416960   0.110   3.035   3.218 -0.1309  0.2450  0.3386
  127POPC  H14R16961   0.064   3.036   3.320  3.2045  0.7253  1.9127
  127POPC  H14S16962   0.057   2.957   3.161 -0.1307 -0.4571  1.2789
  127POPC  C21516963   0.087   3.169   3.147  0.1288 -0.0040 -0.2144
  127POPC  H15R16964   0.091   3.159   3.036  3.9019  2.7054 -0.3932
  127POPC  H15S16965   0.171   3.235   3.175  0.9719 -0.7885 -0.8299
  127POPC  C21616966   7.923   3.244   3.191  0.1944  0.3567 -0.5253
  127POPC  H16R16967   7.908   3.221   3.298 -0.9263  0.7822 -0.5815
  127POPC  H16S16968   7.839   3.196   3.136  2.0757 -1.7345 -1.6589
  127POPC  C21716969   7.922   3.394   3.162  0.5647  0.5805  0.6178
  127POPC  H17R16970   7.914   3.430   3.057 -0.0840  0.9929  0.8006
  127POPC  H17S16971   0.054   3.444   3.193 -0.0993  1.2812  1.6747
  127POPC  C21816972   7.794   3.453   3.221  0.1613 -0.0096  0.3259
  127POPC  H18R16973   7.792   3.561   3.199 -1.2468  0.0774  0.8406
  127POPC  H18S16974   7.799   3.452   3.332 -0.6170  1.7540  0.3867
  127POPC  H18T16975   7.698   3.401   3.196  0.3014 -0.7316  1.2662
  127POPC   C3316976   7.623   2.689   2.786  0.1208 -0.1144 -0.4392
  127POPC   H3X16977   7.560   2.713   2.874  0.0393 -1.2851 -0.1661
  127POPC   H3Y16978   7.621   2.783   2.728  0.0118  0.0813 -0.1228
  127POPC   C3416979   7.765   2.669   2.841  0.0264  0.2514 -0.0554
  127POPC   H4X16980   7.826   2.686   2.749 -2.6480 -0.6008 -2.0555
  127POPC   H4Y16981   7.781   2.568   2.883 -0.2790  1.6481  3.5650
  127POPC   C3516982   7.807   2.760   2.956  0.0517  0.7211 -0.4335
  127POPC   H5X16983   7.908   2.744   3.000 -0.1930 -1.4055 -0.6066
  127POPC   H5Y16984   7.741   2.734   3.042 -0.4719  1.3039 -0.6568
  127POPC   C3616985   7.794   2.911   2.936 -0.3084  0.7089 -0.2909
  127POPC   H6X16986   7.837   2.963   3.024 -0.1637  1.0700 -0.5705
  127POPC   H6Y16987   7.684   2.929   2.931 -0.5132 -0.5165 -0.3899
  127POPC   C3716988   7.871   2.967   2.817 -0.0474  0.2939 -0.3152
  127POPC   H7X16989   7.856   3.076   2.803  1.2733  0.9188  2.7477
  127POPC   H7Y16990   7.838   2.920   2.722  0.7495  0.7163 -0.8082
  127POPC   C3816991   0.061   2.946   2.825 -0.0971 -0.2492 -0.0200
  127POPC   H8X16992   0.101   2.959   2.928  2.0419  2.2510 -1.1131
  127POPC   H8Y16993   0.099   3.035   2.772 -2.0137  1.7514  1.8621
  127POPC   C3916994   0.130   2.819   2.775  0.2499  0.0796 -0.3702
  127POPC   H9X16995   0.096   2.805   2.671 -1.9108  1.2677  0.1486
  127POPC   H9Y16996   0.092   2.730   2.829  0.0516 -0.1287 -0.8512
  127POPC  C31016997   0.283   2.808   2.779  0.2463  0.1781  0.1806
  127POPC  H10X16998   0.321   2.834   2.880 -2.2391 -0.0321  1.1956
  127POPC  H10Y16999   0.341   2.874   2.710 -0.5949 -0.0235 -0.7347
  127POPC  C31117000   0.316   2.662   2.745 -0.3034  0.0920  0.0032
  127POPC  H11X17001   0.245   2.629   2.666  0.0904  1.1598 -0.8145
  127POPC  H11Y17002   0.293   2.609   2.840 -2.5706 -0.1012 -0.6219
  127POPC  C31217003   0.456   2.627   2.694 -0.2283  0.6968 -0.2113
  127POPC  H12X17004   0.474   2.691   2.604  0.2204 -0.2723 -0.8189
  127POPC  H12Y17005   0.455   2.525   2.650  1.7623  1.2311 -1.5472
  127POPC  C31317006   0.560   2.634   2.806 -0.3807 -0.0076 -0.0247
  127POPC  H13X17007   0.524   2.592   2.903 -0.3582  1.5311  0.6688
  127POPC  H13Y17008   0.584   2.740   2.829 -1.0671  0.2715 -0.5620
  127POPC  C31417009   0.696   2.578   2.765  0.0004  0.3124  0.7792
  127POPC  H14X17010   0.687   2.468   2.776 -0.7431  0.1217 -1.3719
  127POPC  H14Y17011   0.761   2.621   2.843  1.7630 -1.8188  0.5328
  127POPC  C31517012   0.744   2.616   2.625  0.1816 -0.1449  0.7166
  127POPC  H15X17013   0.712   2.720   2.605 -1.2291 -0.5808  0.6549
  127POPC  H15Y17014   0.683   2.548   2.562  0.4629 -0.9314  1.2846
  127POPC  C31617015   0.892   2.591   2.598 -0.0346 -0.1568 -0.4837
  127POPC  H16X17016   0.912   2.491   2.554  2.2727 -0.6077  1.4748
  127POPC  H16Y17017   0.950   2.595   2.692  0.1884 -1.4391 -0.5561
  127POPC  H16Z17018   0.942   2.666   2.532  1.3960  0.3567  1.1568
  128POPC     N17019   4.121   1.919   2.360 -0.5879  0.0958 -0.3536
  128POPC   C1217020   4.161   1.939   2.216  0.2387 -0.4690 -0.2078
  128POPC  H12A17024   4.087   2.001   2.168 -0.7884 -1.3961  0.1376
  128POPC  H12B17025   4.173   1.840   2.174  1.0290 -0.8478  0.8727
  128POPC   C1317021   3.972   1.897   2.353 -0.5556 -0.3585  0.2981
  128POPC  H13A17026   3.925   1.855   2.440 -1.8668 -0.9342 -0.6717
  128POPC  H13B17027   3.928   1.991   2.326  1.9148  0.3433 -1.4290
  128POPC  H13C17028   3.936   1.829   2.276 -0.5835 -0.3116  0.2692
  128POPC   C1417022   4.202   1.806   2.422 -0.0545  0.6848  0.0344
  128POPC  H14A17029   4.306   1.833   2.414  0.2703 -0.7749 -0.8268
  128POPC  H14B17030   4.184   1.796   2.528 -1.7508  1.8918 -0.1076
  128POPC  H14C17031   4.186   1.717   2.363  0.8307  0.2797  0.4125
  128POPC   C1517023   4.139   2.037   2.452 -0.4293  0.1700 -0.4800
  128POPC  H15A17032   4.093   2.018   2.548  0.5592 -1.9853 -0.4272
  128POPC  H15B17033   4.110   2.127   2.399 -1.1814  1.1161  1.4851
  128POPC  H15C17034   4.243   2.060   2.467 -0.6123 -0.5298  2.1651
  128POPC   C1117035   4.295   2.008   2.193  0.2635 -0.3990  0.1392
  128POPC  H11A17036   4.288   2.118   2.211 -1.2017 -0.5741  0.6508
  128POPC  H11B17037   4.319   1.998   2.085  2.7269  2.3531  0.3580
  128POPC     P17038   4.543   2.025   2.241 -0.3299  0.0508  0.1431
  128POPC   O1317039   4.564   2.132   2.340  0.1694 -0.0749  0.1731
  128POPC   O1417040   4.548   2.079   2.103 -0.1101  0.5647  0.3535
  128POPC   O1217041   4.404   1.948   2.263  0.1130 -0.7844  0.0390
  128POPC   O1117042   4.653   1.910   2.254 -0.3946  0.0447  0.6576
  128POPC    C117043   4.622   1.777   2.297  0.4850 -0.2695  0.3484
  128POPC    HA17044   4.660   1.708   2.219 -1.4310 -1.3870  0.3701
  128POPC    HB17045   4.513   1.753   2.303 -0.5041  4.0289  1.2374
  128POPC    C217046   4.686   1.745   2.433 -0.2879 -0.0684  0.7644
  128POPC    HS17047   4.657   1.649   2.480  0.4903 -0.9036 -0.4486
  128POPC   O2117048   4.659   1.858   2.517  0.0504  0.5928 -0.0066
  128POPC   C2117049   4.560   1.828   2.601 -0.2308  0.1791 -0.4789
  128POPC   O2217050   4.494   1.726   2.592  0.5824 -0.4139  0.1618
  128POPC   C2217051   4.543   1.936   2.707 -0.1657 -0.3733  0.0958
  128POPC   H2R17052   4.439   1.976   2.712  0.0101  0.3113 -1.5346
  128POPC   H2S17053   4.615   2.016   2.682 -2.0852  1.0229 -1.0779
  128POPC    C317054   4.839   1.733   2.421 -0.3256  0.2639 -0.1271
  128POPC    HX17055   4.886   1.801   2.347  0.1172  1.8139  1.5291
  128POPC    HY17056   4.857   1.630   2.384 -1.1978  0.3616 -0.8258
  128POPC   O3117057   4.903   1.752   2.548 -0.0357 -0.3025 -0.1858
  128POPC   C3117058   4.897   1.646   2.629  0.5085 -0.2586 -0.0903
  128POPC   O3217059   4.857   1.534   2.601  0.1342 -0.0523 -0.3930
  128POPC   C3217060   4.938   1.686   2.770 -0.0484 -0.0004 -0.0017
  128POPC   H2X17061   4.855   1.734   2.827 -0.6448 -1.4964  0.4045
  128POPC   H2Y17062   5.023   1.757   2.762 -0.1612  0.0927 -0.4019
  128POPC   C2317063   4.590   1.866   2.835 -0.6981 -0.0220  0.4863
  128POPC   H3R17064   4.673   1.796   2.814  1.4796  2.6771 -0.2612
  128POPC   H3S17065   4.511   1.802   2.880  1.5268 -2.9328  0.3983
  128POPC   C2417066   4.645   1.965   2.938 -0.3578  0.1437  0.1477
  128POPC   H4R17067   4.561   2.030   2.968  0.4251  1.6073 -0.7645
  128POPC   H4S17068   4.724   2.028   2.892  0.0965  0.5175  1.3905
  128POPC   C2517069   4.715   1.909   3.063  0.1525  0.1711 -0.1250
  128POPC   H5R17070   4.807   1.851   3.037 -0.9367 -0.4525 -2.8073
  128POPC   H5S17071   4.638   1.844   3.110 -1.2847  2.9147  1.4217
  128POPC   C2617072   4.750   2.018   3.164  0.1595  0.1845 -0.1416
  128POPC   H6R17073   4.654   2.073   3.176  0.4865  1.7682 -3.8542
  128POPC   H6S17074   4.824   2.097   3.138  1.8979 -1.2447  0.3992
  128POPC   C2717075   4.809   1.970   3.296 -0.1486 -0.0501 -0.0876
  128POPC   H7R17076   4.894   1.899   3.283 -0.4362 -0.6079  0.9659
  128POPC   H7S17077   4.725   1.913   3.340 -2.6130  2.3871 -1.5123
  128POPC   C2817078   4.839   2.076   3.403  0.5929 -0.0450 -0.2973
  128POPC   H8R17079   4.880   2.042   3.501 -1.4196  1.0521  0.9572
  128POPC   H8S17080   4.741   2.126   3.420 -0.4081 -2.3370  0.9646
  128POPC   C2917081   4.916   2.196   3.356 -0.0774  0.3538 -0.3857
  128POPC   H9117082   4.860   2.261   3.287  0.5082 -0.1134 -1.3164
  128POPC  C21017083   5.034   2.235   3.406  0.0178 -0.0547 -0.2899
  128POPC  H10117084   5.087   2.328   3.381  1.2883 -0.5773  0.4387
  128POPC  C21117085   5.119   2.165   3.508 -0.2304  0.4612  0.2684
  128POPC  H11R17086   5.079   2.068   3.545  2.7225 -0.4915  1.1260
  128POPC  H11S17087   5.221   2.149   3.467 -0.9423  2.3953 -2.3603
  128POPC  C21217088   5.135   2.243   3.639 -0.1216 -0.0696  0.5728
  128POPC  H12R17089   5.187   2.342   3.630  0.4077 -0.1353  2.6964
  128POPC  H12S17090   5.030   2.257   3.673 -1.1796 -1.7732 -1.8763
  128POPC  C21317091   5.215   2.155   3.735  0.1274 -0.3019  0.1536
  128POPC  H13R17092   5.320   2.132   3.706  0.5561 -1.1203  2.2417
  128POPC  H13S17093   5.157   2.060   3.733 -1.9447  0.9031  0.8603
  128POPC  C21417094   5.206   2.215   3.875 -0.5755 -0.0961  0.0243
  128POPC  H14R17095   5.103   2.251   3.894  0.0938  1.3889  1.0137
  128POPC  H14S17096   5.267   2.308   3.871  1.6766 -1.4645  0.9846
  128POPC  C21517097   5.260   2.122   3.985  0.0912 -0.0173 -0.2332
  128POPC  H15R17098   5.362   2.091   3.955 -0.5381 -1.7541 -0.6292
  128POPC  H15S17099   5.185   2.041   4.000 -0.0901  0.2183  0.1458
  128POPC  C21617100   5.284   2.184   4.123  0.0595 -0.3184 -0.0935
  128POPC  H16R17101   5.355   2.269   4.116 -0.1264 -0.1720 -0.2291
  128POPC  H16S17102   5.334   2.106   4.184 -0.1583  0.4826  1.1216
  128POPC  C21717103   5.148   2.218   4.184  0.2607  0.0182  0.1614
  128POPC  H17R17104   5.077   2.136   4.162  0.9622 -0.3161 -0.8812
  128POPC  H17S17105   5.093   2.301   4.134  0.5933 -0.0129 -0.2592
  128POPC  C21817106   5.167   2.247   4.333 -0.0379 -0.0669  0.2163
  128POPC  H18R17107   5.201   2.154   4.383 -1.0233 -1.3646 -1.5079
  128POPC  H18S17108   5.079   2.276   4.394  0.2578 -0.8814  1.0365
  128POPC  H18T17109   5.242   2.328   4.339 -1.7255  1.5246  0.3162
  128POPC   C3317110   4.980   1.555   2.837 -0.2295 -0.0933 -0.0698
  128POPC   H3X17111   5.073   1.510   2.795 -2.1347 -1.2835 -3.2559
  128POPC   H3Y17112   4.902   1.478   2.821 -0.4659 -0.1560  1.3610
  128POPC   C3417113   5.019   1.566   2.984  0.0197  0.2089 -0.1566
  128POPC   H4X17114   4.929   1.619   3.021  1.1000  2.6310 -0.9660
  128POPC   H4Y17115   5.105   1.635   2.989 -2.5141  3.5428 -1.1584
  128POPC   C3517116   5.054   1.433   3.051  0.0418  0.1832 -0.2184
  128POPC   H5X17117   5.140   1.395   2.992  1.1826  1.2737  0.7194
  128POPC   H5Y17118   4.983   1.354   3.019 -1.8150  1.6077  0.3280
  128POPC   C3617119   5.082   1.432   3.202 -0.4527 -0.3035 -0.1277
  128POPC   H6X17120   5.065   1.329   3.240 -0.1519 -0.0501  0.7124
  128POPC   H6Y17121   5.011   1.505   3.244  1.6694  0.7775  1.6661
  128POPC   C3717122   5.223   1.484   3.231 -0.2991 -0.7433 -0.0820
  128POPC   H7X17123   5.225   1.514   3.338 -1.9431  0.8443 -0.4786
  128POPC   H7Y17124   5.238   1.572   3.165  0.4722  0.5411  1.7663
  128POPC   C3817125   5.339   1.389   3.200 -0.1868 -0.3405 -0.8891
  128POPC   H8X17126   5.324   1.361   3.094 -0.4093  0.4045 -1.0589
  128POPC   H8Y17127   5.316   1.305   3.269 -0.2219 -0.8716 -1.5473
  128POPC   C3917128   5.481   1.441   3.228 -0.1885 -0.4997 -0.5811
  128POPC   H9X17129   5.475   1.492   3.327  0.1296 -1.8204  0.1218
  128POPC   H9Y17130   5.531   1.505   3.152  1.1458 -1.9569 -0.9388
  128POPC  C31017131   5.582   1.328   3.213  0.6394  0.2550 -0.7539
  128POPC  H10X17132   5.596   1.293   3.108  2.1922 -0.2472 -0.3970
  128POPC  H10Y17133   5.531   1.238   3.253  0.6378  0.2495 -0.7666
  128POPC  C31117134   5.716   1.327   3.286  0.2237 -0.3499  0.0121
  128POPC  H11X17135   5.709   1.426   3.337  0.7677  0.1624 -0.8871
  128POPC  H11Y17136   5.801   1.325   3.215  2.5318  0.2003  2.6578
  128POPC  C31217137   5.730   1.205   3.377  0.0942 -0.5049 -0.1775
  128POPC  H12X17138   5.741   1.117   3.309 -1.2148  0.4295 -1.6283
  128POPC  H12Y17139   5.633   1.203   3.431  0.1156  1.6502 -0.0383
  128POPC  C31317140   5.837   1.202   3.486  0.5620  0.4914 -0.5998
  128POPC  H13X17141   5.941   1.204   3.447  0.4867  0.4864 -0.8007
  128POPC  H13Y17142   5.825   1.117   3.557  0.4492  0.9003 -0.1276
  128POPC  C31417143   5.836   1.329   3.571 -0.6457 -0.1816  0.4198
  128POPC  H14X17144   5.727   1.348   3.571 -1.1922 -3.1885  0.3300
  128POPC  H14Y17145   5.888   1.414   3.522 -0.9624 -0.1802  0.0893
  128POPC  C31517146   5.889   1.323   3.715 -0.6092 -0.4340  0.3947
  128POPC  H15X17147   5.835   1.251   3.780  0.8052 -0.1911  1.8790
  128POPC  H15Y17148   5.876   1.426   3.753 -0.9627  1.0075 -3.4689
  128POPC  C31617149   6.037   1.284   3.719 -0.6796 -0.7491  0.0079
  128POPC  H16X17150   6.038   1.176   3.692  0.3274 -1.0000  0.9936
  128POPC  H16Y17151   6.076   1.297   3.822 -3.4833  0.7362  0.9328
  128POPC  H16Z17152   6.104   1.342   3.652  0.8333  0.5459  2.5825
  129POPC     N17153   0.917   6.283   1.906  0.2855  0.0125 -0.2794
  129POPC   C1217154   1.028   6.385   1.897 -0.2008  0.5494 -0.2308
  129POPC  H12A17158   0.977   6.478   1.916 -4.7853 -1.6876 -0.8893
  129POPC  H12B17159   1.058   6.375   1.794  0.0864 -0.3465 -0.0641
  129POPC   C1317155   0.971   6.142   1.917  0.0196 -0.0944 -0.3433
  129POPC  H13A17160   1.042   6.130   1.837  0.9496  0.8416  0.3260
  129POPC  H13B17161   1.012   6.130   2.016 -0.7549 -0.4338 -0.0622
  129POPC  H13C17162   0.900   6.061   1.905 -0.3325  0.1523  0.0494
  129POPC   C1417156   0.836   6.320   2.028 -0.0053 -0.6555 -0.2651
  129POPC  H14A17163   0.795   6.420   2.023 -1.7928 -1.3861 -0.4161
  129POPC  H14B17164   0.749   6.259   2.048  0.5211 -0.5316  2.6095
  129POPC  H14C17165   0.896   6.311   2.118 -1.3963 -1.5456  0.6009
  129POPC   C1517157   0.830   6.290   1.783  0.0437 -0.1958 -0.1213
  129POPC  H15A17166   0.879   6.327   1.694 -0.4485  0.7320 -0.0177
  129POPC  H15B17167   0.742   6.350   1.799 -0.1609 -0.3428 -0.6732
  129POPC  H15C17168   0.795   6.192   1.756  2.5182 -1.0273 -0.4099
  129POPC   C1117169   1.154   6.364   1.981 -0.4348  0.2221  0.0400
  129POPC  H11A17170   1.209   6.460   1.973 -2.9759  1.9144  1.9397
  129POPC  H11B17171   1.217   6.287   1.932 -0.1555  2.8480 -3.9202
  129POPC     P17172   1.235   6.276   2.213 -0.0566 -0.5015  0.0089
  129POPC   O1317173   1.343   6.377   2.230 -0.2612 -0.2439 -0.2190
  129POPC   O1417174   1.269   6.137   2.176  0.0751 -0.3736 -0.3646
  129POPC   O1217175   1.120   6.331   2.116  0.1419  0.2595  0.1982
  129POPC   O1117176   1.154   6.266   2.350 -0.2543 -0.1952 -0.0847
  129POPC    C117177   1.088   6.381   2.403  0.3589  0.1276 -0.0269
  129POPC    HA17178   0.988   6.349   2.439  0.8327  0.1219  1.2971
  129POPC    HB17179   1.051   6.450   2.324 -0.7639 -0.6482 -0.1788
  129POPC    C217180   1.168   6.438   2.522  0.1893  0.4857 -0.0833
  129POPC    HS17181   1.262   6.486   2.487  0.7410  1.2052  2.3471
  129POPC   O2117182   1.186   6.325   2.607  0.5709  0.0098 -0.7920
  129POPC   C2117183   1.275   6.348   2.704 -0.5400  0.0526  0.2214
  129POPC   O2217184   1.358   6.437   2.706 -0.4185 -0.0670  0.4835
  129POPC   C2217185   1.253   6.254   2.822  0.1908  0.1289  0.4182
  129POPC   H2R17186   1.327   6.172   2.811  1.6735  1.7398 -2.0730
  129POPC   H2S17187   1.153   6.208   2.805 -0.2915  1.4199 -0.2862
  129POPC    C317188   1.076   6.544   2.585  0.2676  0.5797 -0.1276
  129POPC    HX17189   0.975   6.499   2.587 -0.7644  2.8391  0.5734
  129POPC    HY17190   1.063   6.629   2.515 -0.2134  0.5989 -0.0155
  129POPC   O3117191   1.109   6.579   2.720 -0.3391  0.1275  0.1370
  129POPC   C3117192   1.160   6.701   2.734  0.0747 -0.0755  0.4190
  129POPC   O3217193   1.187   6.776   2.641 -0.0169 -0.3909  0.1373
  129POPC   C3217194   1.176   6.729   2.882 -0.3344 -0.0723  0.4640
  129POPC   H2X17195   1.208   6.641   2.943  2.1814  0.1009 -0.5581
  129POPC   H2Y17196   1.084   6.772   2.926  1.1084  1.8864  1.6760
  129POPC   C2317197   1.280   6.322   2.956 -0.2667  0.1192  0.5134
  129POPC   H3R17198   1.216   6.412   2.973 -0.6349  0.3151 -1.7006
  129POPC   H3S17199   1.381   6.367   2.946  0.2473 -0.7722  1.6006
  129POPC   C2417200   1.275   6.235   3.082  0.4186 -0.4843  0.1224
  129POPC   H4R17201   1.342   6.149   3.061  1.7631  0.2597  1.3079
  129POPC   H4S17202   1.172   6.193   3.092  0.7898 -1.4370  0.0228
  129POPC   C2517203   1.316   6.323   3.199 -0.0110 -0.4349  0.2348
  129POPC   H5R17204   1.237   6.398   3.223 -0.7094 -1.4883  1.2993
  129POPC   H5S17205   1.409   6.381   3.179  1.8247 -3.0131  1.1350
  129POPC   C2617206   1.322   6.232   3.322  0.2007 -0.1156  0.4639
  129POPC   H6R17207   1.398   6.154   3.300 -1.1324 -0.8801 -1.6216
  129POPC   H6S17208   1.229   6.173   3.336  0.1156 -0.2177 -0.4771
  129POPC   C2717209   1.363   6.322   3.438  0.3637  0.1230  0.2220
  129POPC   H7R17210   1.455   6.382   3.420  1.4794 -1.4941  0.3687
  129POPC   H7S17211   1.380   6.253   3.524  1.3407  1.9253  1.5182
  129POPC   C2817212   1.252   6.410   3.497 -0.0019  0.0682 -0.3804
  129POPC   H8R17213   1.164   6.346   3.520  0.7804 -0.6442  0.6868
  129POPC   H8S17214   1.216   6.489   3.428  0.9437  0.4684 -0.4264
  129POPC   C2917215   1.295   6.462   3.631 -0.4904  0.3338 -0.3256
  129POPC   H9117216   1.366   6.546   3.621  0.6854 -0.2605  2.4952
  129POPC  C21017217   1.247   6.424   3.750  0.1794 -0.0240 -0.1642
  129POPC  H10117218   1.299   6.467   3.837  1.1821 -1.4660 -0.0429
  129POPC  C21117219   1.143   6.319   3.775 -0.2768  0.2582 -0.8685
  129POPC  H11R17220   1.123   6.251   3.690 -2.7245 -0.4430  0.2004
  129POPC  H11S17221   1.047   6.371   3.799  1.3104  2.3983  1.0818
  129POPC  C21217222   1.184   6.240   3.899 -0.1055  0.9061 -0.5064
  129POPC  H12R17223   1.223   6.302   3.983 -3.2591 -0.0429  1.7389
  129POPC  H12S17224   1.267   6.168   3.879 -0.6672  0.3803 -0.9701
  129POPC  C21317225   1.072   6.146   3.945  0.3743  0.4817 -0.1918
  129POPC  H13R17226   0.984   6.206   3.976  2.2945  3.1549  0.3519
  129POPC  H13S17227   1.112   6.089   4.031  0.8707  3.2190  1.4757
  129POPC  C21417228   1.034   6.046   3.836 -0.2152  0.5002 -0.0041
  129POPC  H14R17229   1.131   6.002   3.806 -0.5309 -0.8696  0.9392
  129POPC  H14S17230   0.985   6.102   3.755 -0.2363  3.4122  1.9407
  129POPC  C21517231   0.932   5.942   3.884  0.0002  0.0244 -0.5704
  129POPC  H15R17232   0.883   5.910   3.791 -0.1097  0.4885 -0.6745
  129POPC  H15S17233   0.869   6.001   3.955  1.7400 -2.0905  2.8826
  129POPC  C21617234   1.001   5.832   3.965 -0.7563  0.0384  0.1016
  129POPC  H16R17235   0.986   5.856   4.072  2.8132  2.2647  0.1825
  129POPC  H16S17236   1.109   5.822   3.941 -0.2707  0.2468  2.1035
  129POPC  C21717237   0.931   5.697   3.945  0.0844 -0.3583 -0.1659
  129POPC  H17R17238   0.934   5.660   3.840 -1.4318 -0.2043 -0.2750
  129POPC  H17S17239   0.823   5.713   3.965  0.5243  1.0271  1.1543
  129POPC  C21817240   0.989   5.584   4.030 -0.0696  0.0587  0.4969
  129POPC  H18R17241   1.094   5.604   4.057  0.5300  0.5484 -2.0497
  129POPC  H18S17242   0.975   5.486   3.979  0.8495  0.5860 -0.7799
  129POPC  H18T17243   0.928   5.580   4.123 -0.6054 -3.2060  0.0728
  129POPC   C3317244   1.292   6.827   2.904 -0.2116 -0.0369 -0.3535
  129POPC   H3X17245   1.300   6.895   2.817  0.8016 -0.4482 -0.5851
  129POPC   H3Y17246   1.381   6.761   2.907 -0.4372 -0.2861  1.3062
  129POPC   C3417247   1.287   6.911   3.031  0.2839  0.2121 -0.4954
  129POPC   H4X17248   1.392   6.934   3.058  0.8403  0.4639 -2.8059
  129POPC   H4Y17249   1.249   6.843   3.111 -0.5555  1.0331 -0.1831
  129POPC   C3517250   1.227   7.049   3.006  0.0517  0.1742 -0.1697
  129POPC   H5X17251   1.117   7.038   2.996  0.1382 -0.8427  0.0236
  129POPC   H5Y17252   1.266   7.093   2.911  3.4524  0.6210  1.3472
  129POPC   C3617253   1.257   7.153   3.114  0.2849 -0.2111  0.1365
  129POPC   H6X17254   1.364   7.140   3.139 -0.3121 -0.8386  2.5972
  129POPC   H6Y17255   1.191   7.133   3.202  1.6919 -2.9523  0.6316
  129POPC   C3717256   1.233   7.299   3.076  0.3578 -0.1870  0.1818
  129POPC   H7X17257   1.123   7.314   3.082  0.3587  0.8615 -1.7817
  129POPC   H7Y17258   1.274   7.322   2.975  0.5884 -1.2768  0.0266
  129POPC   C3817259   1.302   7.390   3.178 -0.3455  0.5990 -0.0355
  129POPC   H8X17260   1.294   7.497   3.148 -1.4825  0.6117  0.2990
  129POPC   H8Y17261   1.412   7.374   3.186 -0.2506  1.3846  0.3119
  129POPC   C3917262   1.239   7.385   3.317 -0.2890  0.6277 -0.0085
  129POPC   H9X17263   1.257   7.277   3.337 -0.7767 -0.0485 -2.9197
  129POPC   H9Y17264   1.132   7.415   3.311 -1.0687 -1.7762  1.1671
  129POPC  C31017265   1.314   7.471   3.419  0.0417 -0.4330  0.6456
  129POPC  H10X17266   1.275   7.427   3.514 -0.7814 -0.6816  0.1994
  129POPC  H10Y17267   1.305   7.580   3.401  0.8822 -0.1793  1.7244
  129POPC  C31117268   1.463   7.439   3.434  0.1313 -0.1181  0.4142
  129POPC  H11X17269   1.518   7.451   3.338 -0.7467  0.5680 -0.0178
  129POPC  H11Y17270   1.477   7.339   3.479 -3.8947 -0.0808  1.9491
  129POPC  C31217271   1.540   7.529   3.530  0.0224 -0.0214  0.4125
  129POPC  H12X17272   1.507   7.498   3.632  0.8030  0.1264  0.7172
  129POPC  H12Y17273   1.503   7.632   3.511 -1.1105 -0.5722 -0.4052
  129POPC  C31317274   1.691   7.521   3.504 -0.0175  0.3269  0.0835
  129POPC  H13X17275   1.701   7.569   3.404 -0.2573 -1.1214 -0.6399
  129POPC  H13Y17276   1.724   7.418   3.481 -0.8904  0.1584 -0.4706
  129POPC  C31417277   1.775   7.577   3.619  0.0299  0.7659 -0.1610
  129POPC  H14X17278   1.750   7.513   3.706  1.0148 -1.2229 -1.2840
  129POPC  H14Y17279   1.748   7.683   3.635  1.3058  1.0546  0.0913
  129POPC  C31517280   1.925   7.565   3.591  0.1139  0.3961  0.4388
  129POPC  H15X17281   1.940   7.617   3.494  0.3640  0.2400  0.3942
  129POPC  H15Y17282   1.959   7.462   3.570  2.1770  1.2605 -0.5888
  129POPC  C31617283   2.023   7.622   3.693  0.4314  0.3100  0.1811
  129POPC  H16X17284   2.016   7.568   3.790 -0.0285  0.7422  0.3887
  129POPC  H16Y17285   1.997   7.727   3.718 -1.5388  0.0939 -0.8740
  129POPC  H16Z17286   2.130   7.614   3.662  0.4937  0.3913  0.3689
  130POPC     N17287   6.523   2.045   1.985 -0.1061  0.3359 -0.1792
  130POPC   C1217288   6.599   2.084   2.109  0.6806  0.0473 -0.5698
  130POPC  H12A17292   6.615   2.191   2.103 -0.0290  0.1892 -0.0574
  130POPC  H12B17293   6.695   2.035   2.109  0.6841  0.0539 -0.6552
  130POPC   C1317289   6.498   1.897   1.977  0.2421  0.2785 -0.2097
  130POPC  H13A17294   6.585   1.842   2.009 -0.7283 -0.9571  0.3761
  130POPC  H13B17295   6.415   1.868   2.040 -1.5061  3.2864 -1.0158
  130POPC  H13C17296   6.472   1.872   1.875  0.0219 -0.8939  0.1270
  130POPC   C1417290   6.397   2.129   1.975  0.0164  0.5667  0.2015
  130POPC  H14A17297   6.347   2.122   1.880 -0.5658 -0.8485  0.5955
  130POPC  H14B17298   6.331   2.109   2.058  0.2226  1.3229  0.5470
  130POPC  H14C17299   6.429   2.231   1.986  2.3030  0.1125 -1.8092
  130POPC   C1517291   6.614   2.079   1.870  0.3827  0.0042  0.1095
  130POPC  H15A17300   6.645   2.183   1.871  1.1201 -0.2243  1.0182
  130POPC  H15B17301   6.554   2.067   1.781 -1.6885  0.9378  1.3292
  130POPC  H15C17302   6.704   2.020   1.871  0.5548  0.2517 -0.2922
  130POPC   C1117303   6.534   2.045   2.242  0.2055  0.3007 -0.7282
  130POPC  H11A17304   6.472   2.129   2.279 -0.7057 -0.8874  0.5060
  130POPC  H11B17305   6.614   2.038   2.318 -2.5352 -0.0429  2.2212
  130POPC     P17306   6.312   1.920   2.300 -0.0004  0.0077 -0.3965
  130POPC   O1317307   6.245   1.795   2.256 -0.2810 -0.1564  0.4971
  130POPC   O1417308   6.246   2.047   2.262 -0.2637  0.0872  0.3285
  130POPC   O1217309   6.461   1.921   2.243  0.1205  0.3559 -0.0688
  130POPC   O1117310   6.332   1.914   2.458  0.0033  0.0324 -0.3961
  130POPC    C117311   6.268   2.015   2.537  0.2087 -0.0969 -0.0616
  130POPC    HA17312   6.232   1.971   2.632 -1.3713 -1.5040 -1.2626
  130POPC    HB17313   6.171   2.048   2.494 -0.6610  1.0094  2.6415
  130POPC    C217314   6.357   2.131   2.584  0.1797 -0.1807  0.2017
  130POPC    HS17315   6.385   2.182   2.489  1.1234  0.1579  0.6561
  130POPC   O2117316   6.473   2.089   2.656  0.3871  0.3693  0.1914
  130POPC   C2117317   6.567   2.182   2.674  0.0818  0.6262  0.4873
  130POPC   O2217318   6.567   2.293   2.624 -0.2215  0.7470  0.7527
  130POPC   C2217319   6.684   2.134   2.759  0.2100  0.0247 -0.0268
  130POPC   H2R17320   6.772   2.117   2.693  0.2857  0.2266  0.0212
  130POPC   H2S17321   6.674   2.031   2.800 -1.1561 -0.9265 -2.5966
  130POPC    C317322   6.282   2.228   2.677 -0.3452 -0.1093 -0.2856
  130POPC    HX17323   6.180   2.248   2.638  0.0294  1.2495 -0.5642
  130POPC    HY17324   6.330   2.328   2.673  0.5551 -0.5103  0.1863
  130POPC   O3117325   6.258   2.181   2.810 -0.2542 -0.3735 -0.3623
  130POPC   C3117326   6.187   2.259   2.891  0.0507 -0.2920 -0.1683
  130POPC   O3217327   6.137   2.367   2.861  0.4498  0.1283  0.6705
  130POPC   C3217328   6.186   2.198   3.030  0.3559  0.1672  0.0351
  130POPC   H2X17329   6.274   2.134   3.052 -1.6393 -2.5331  0.3534
  130POPC   H2Y17330   6.104   2.124   3.032  0.6368 -0.1357  0.3815
  130POPC   C2317331   6.703   2.234   2.873  0.3357 -0.1828  0.1357
  130POPC   H3R17332   6.720   2.332   2.823 -1.0067  1.1475  2.1811
  130POPC   H3S17333   6.796   2.205   2.926  0.5236 -2.0594 -1.1634
  130POPC   C2417334   6.589   2.231   2.975  0.3532  0.0220  0.1629
  130POPC   H4R17335   6.567   2.126   3.005 -2.3703  0.8636  1.2920
  130POPC   H4S17336   6.492   2.261   2.930  0.3893 -1.6171 -1.0747
  130POPC   C2517337   6.631   2.313   3.096 -0.1200  0.2314  0.1867
  130POPC   H5R17338   6.596   2.418   3.084  1.8668  0.7961 -0.9660
  130POPC   H5S17339   6.742   2.314   3.094 -0.1372  1.7060 -3.0887
  130POPC   C2617340   6.577   2.254   3.226 -0.8625  0.0982 -0.1818
  130POPC   H6R17341   6.622   2.153   3.239  1.6031  1.2827  0.6455
  130POPC   H6S17342   6.467   2.241   3.213 -0.6486 -2.3462  0.1219
  130POPC   C2717343   6.622   2.338   3.346  0.7177 -0.5755 -0.2933
  130POPC   H7R17344   6.586   2.442   3.337  0.0511 -0.8184 -0.4737
  130POPC   H7S17345   6.733   2.345   3.351  0.7419 -0.5827 -0.8177
  130POPC   C2817346   6.569   2.291   3.482  1.0129  0.4996  0.1980
  130POPC   H8R17347   6.467   2.250   3.466  1.5203 -0.1528 -1.4967
  130POPC   H8S17348   6.564   2.382   3.546  0.3475 -0.0901  0.9959
  130POPC   C2917349   6.646   2.179   3.545 -0.2415 -0.2532  0.4279
  130POPC   H9117350   6.658   2.091   3.481  0.1191 -0.0498  0.2116
  130POPC  C21017351   6.705   2.175   3.666  0.5853 -0.1605  0.0298
  130POPC  H10117352   6.769   2.090   3.696  0.2923  0.1465  1.5391
  130POPC  C21117353   6.706   2.274   3.779  1.0788 -0.3389  0.1822
  130POPC  H11R17354   6.672   2.374   3.747  0.0686 -0.7163  0.0523
  130POPC  H11S17355   6.811   2.297   3.807  1.4373  2.1472 -3.0070
  130POPC  C21217356   6.640   2.221   3.906 -0.0648 -0.3044 -0.3912
  130POPC  H12R17357   6.686   2.267   3.997 -0.5072 -0.5622 -0.0354
  130POPC  H12S17358   6.657   2.113   3.923  1.1537  0.2661  2.4494
  130POPC  C21317359   6.490   2.249   3.908 -0.0968 -0.4957 -0.0491
  130POPC  H13R17360   6.464   2.216   3.805 -2.7555 -2.2531  1.1338
  130POPC  H13S17361   6.456   2.353   3.928  1.2606  0.3348 -1.8768
  130POPC  C21417362   6.414   2.151   3.997 -0.5294 -0.0069  0.1278
  130POPC  H14R17363   6.449   2.047   3.981  1.1016  0.2055  2.1124
  130POPC  H14S17364   6.307   2.154   3.969 -0.4188  2.6602 -0.1079
  130POPC  C21517365   6.421   2.187   4.146 -0.1426 -0.0829  0.1292
  130POPC  H15R17366   6.376   2.286   4.169 -1.8317 -0.8687  0.2944
  130POPC  H15S17367   6.524   2.201   4.184  0.2159  0.5253 -1.0410
  130POPC  C21617368   6.353   2.077   4.228 -0.3734  0.2607  0.3995
  130POPC  H16R17369   6.396   1.978   4.202  0.8791  1.3356 -1.8019
  130POPC  H16S17370   6.243   2.089   4.225 -0.7606 -2.5861  1.7917
  130POPC  C21717371   6.373   2.092   4.379 -0.1705 -1.0624  0.5021
  130POPC  H17R17372   6.482   2.089   4.401  0.0639  0.0822 -0.4802
  130POPC  H17S17373   6.318   2.007   4.426 -0.1816  0.1677  2.7884
  130POPC  C21817374   6.316   2.218   4.443  0.7725 -0.3382 -0.0707
  130POPC  H18R17375   6.367   2.310   4.407 -1.7562  1.5500  0.9982
  130POPC  H18S17376   6.337   2.221   4.552  2.5758 -0.9292 -0.3859
  130POPC  H18T17377   6.207   2.222   4.419  0.4834  0.4999  1.3038
  130POPC   C3317378   6.175   2.304   3.140 -0.0207  0.1968 -0.0303
  130POPC   H3X17379   6.092   2.375   3.119 -0.3851 -0.0968  0.4118
  130POPC   H3Y17380   6.268   2.365   3.136  0.3498 -0.2671  1.4900
  130POPC   C3417381   6.140   2.247   3.277  0.1837  0.1661  0.0105
  130POPC   H4X17382   6.206   2.160   3.295  1.3494  0.5196 -2.3797
  130POPC   H4Y17383   6.041   2.198   3.286 -0.7125  1.9796  0.2763
  130POPC   C3517384   6.139   2.348   3.392  0.2460 -0.0546  0.2040
  130POPC   H5X17385   6.067   2.432   3.396 -0.0020 -0.3103  1.6502
  130POPC   H5Y17386   6.235   2.404   3.395 -0.0538  0.4234  1.0616
  130POPC   C3617387   6.130   2.274   3.526 -0.0047  0.2200  0.3385
  130POPC   H6X17388   6.216   2.205   3.536  0.0118  0.2912  0.7209
  130POPC   H6Y17389   6.037   2.214   3.536 -0.1500  0.3446 -0.2304
  130POPC   C3717390   6.122   2.375   3.641 -0.3131  0.5156  0.0588
  130POPC   H7X17391   6.040   2.448   3.623 -0.4853  0.1397 -0.6987
  130POPC   H7Y17392   6.220   2.426   3.644 -0.4075  0.6316  1.9694
  130POPC   C3817393   6.114   2.314   3.781 -0.4860  0.5877  0.0818
  130POPC   H8X17394   6.178   2.224   3.795 -3.8929 -2.3097 -2.1085
  130POPC   H8Y17395   6.013   2.273   3.805  0.1477 -0.5716  0.8307
  130POPC   C3917396   6.157   2.415   3.887  0.4844 -0.1233  0.3768
  130POPC   H9X17397   6.104   2.504   3.847 -0.2061 -1.4016 -1.6225
  130POPC   H9Y17398   6.263   2.449   3.887 -0.7689  4.0976  0.7878
  130POPC  C31017399   6.116   2.383   4.031  0.1907  0.3631  0.4005
  130POPC  H10X17400   6.131   2.275   4.051 -0.2790  0.0945 -0.6764
  130POPC  H10Y17401   6.005   2.387   4.032 -0.0153 -2.7353 -2.1863
  130POPC  C31117402   6.159   2.485   4.137  0.3034  0.2362  0.4758
  130POPC  H11X17403   6.137   2.586   4.097 -0.8071  0.7892  2.4310
  130POPC  H11Y17404   6.269   2.468   4.143  0.6478  1.1621 -2.4462
  130POPC  C31217405   6.093   2.476   4.275  0.5966 -0.3109  0.5846
  130POPC  H12X17406   6.098   2.367   4.297  0.6762 -0.3001  0.6189
  130POPC  H12Y17407   5.988   2.514   4.274  1.1464  1.2247 -0.4270
  130POPC  C31317408   6.167   2.556   4.382 -0.1763  0.6060  0.4422
  130POPC  H13X17409   6.272   2.518   4.384  0.1206  1.4408  2.3764
  130POPC  H13Y17410   6.122   2.542   4.483 -2.5715  1.4022 -0.4847
  130POPC  C31417411   6.166   2.707   4.357  0.0540  0.5728  0.2295
  130POPC  H14X17412   6.169   2.745   4.253 -0.4775  0.1392  0.0539
  130POPC  H14Y17413   6.256   2.738   4.415  1.5644 -1.0571 -1.1702
  130POPC  C31517414   6.049   2.772   4.430 -0.4078 -0.2452  0.2203
  130POPC  H15X17415   6.088   2.875   4.444 -1.5847  0.3844 -1.0431
  130POPC  H15Y17416   6.028   2.715   4.524 -2.7908 -2.2987 -1.4798
  130POPC  C31617417   5.912   2.768   4.362 -0.5308  1.0510  0.3788
  130POPC  H16X17418   5.871   2.670   4.327  0.0612  0.7060  0.6375
  130POPC  H16Y17419   5.923   2.834   4.274  0.0148 -0.1103 -0.4353
  130POPC  H16Z17420   5.832   2.805   4.430 -2.2491  2.2228 -2.2209
  131POPC     N17421   4.847   4.753   2.331  0.7286  0.0666 -0.1000
  131POPC   C1217422   4.735   4.745   2.432  0.1713  0.2851 -0.6950
  131POPC  H12A17426   4.771   4.788   2.524  2.0156  0.6202 -1.5530
  131POPC  H12B17427   4.707   4.642   2.450  1.3196  0.3255  1.4742
  131POPC   C1317423   4.891   4.894   2.302  0.3467  0.0609 -0.7193
  131POPC  H13A17428   4.799   4.945   2.279  0.0791 -1.1413 -2.4313
  131POPC  H13B17429   4.937   4.930   2.393 -0.7817 -0.1004 -0.0778
  131POPC  H13C17430   4.959   4.914   2.220  0.6862  0.3115 -0.3736
  131POPC   C1417424   4.967   4.684   2.391  0.4553  0.0861  0.4688
  131POPC  H14A17431   5.049   4.683   2.320  0.4578 -2.7350  0.4875
  131POPC  H14B17432   5.002   4.741   2.476  3.0393 -0.9365  0.1324
  131POPC  H14C17433   4.939   4.589   2.432 -0.2563  0.2278  0.3121
  131POPC   C1517425   4.810   4.698   2.195  0.1754  0.0938  0.0365
  131POPC  H15A17434   4.762   4.601   2.202 -1.4358  1.0045  1.8717
  131POPC  H15B17435   4.902   4.682   2.140 -0.5767 -0.5089 -1.0642
  131POPC  H15C17436   4.747   4.775   2.153 -0.3140 -1.0308 -1.3504
  131POPC   C1117437   4.596   4.804   2.407 -0.0980 -0.2397 -0.4482
  131POPC  H11A17438   4.530   4.771   2.490 -0.0439  2.8144  0.8617
  131POPC  H11B17439   4.554   4.760   2.314  2.9319 -2.1032 -1.0164
  131POPC     P17440   4.490   5.043   2.402  0.1705  0.3283 -0.0018
  131POPC   O1317441   4.377   4.952   2.371  0.2544  0.2341 -0.0356
  131POPC   O1417442   4.512   5.165   2.321  0.0287 -0.0924 -0.6770
  131POPC   O1217443   4.617   4.945   2.407 -0.2714 -0.2075  0.9672
  131POPC   O1117444   4.482   5.091   2.554 -0.0834  0.2907 -0.0027
  131POPC    C117445   4.585   5.176   2.606  0.9028 -0.7972 -0.1553
  131POPC    HA17446   4.557   5.283   2.620  0.1111 -0.9502 -0.5823
  131POPC    HB17447   4.682   5.179   2.551  0.0319  1.7624 -1.6226
  131POPC    C217448   4.623   5.120   2.744  0.2742  0.0965  0.3838
  131POPC    HS17449   4.704   5.045   2.731  0.2174  0.2619 -1.0190
  131POPC   O2117450   4.510   5.071   2.818  0.3355 -0.5571  0.0466
  131POPC   C2117451   4.494   4.939   2.808  0.1415 -0.5537  0.2938
  131POPC   O2217452   4.576   4.860   2.763  0.5876 -0.0029  0.1271
  131POPC   C2217453   4.363   4.907   2.878  0.1098 -0.0606  0.4626
  131POPC   H2R17454   4.293   4.993   2.864  0.1870  0.0172  0.5562
  131POPC   H2S17455   4.396   4.888   2.982 -0.1576 -0.3510  0.4953
  131POPC    C317456   4.681   5.228   2.837  0.0915  0.3261  0.2343
  131POPC    HX17457   4.607   5.310   2.847  0.7528  0.8119  1.3451
  131POPC    HY17458   4.777   5.267   2.797  0.1320  1.8985  1.7885
  131POPC   O3117459   4.700   5.175   2.969  0.1911 -0.0317  0.0786
  131POPC   C3117460   4.809   5.100   2.982 -0.0658 -0.4374 -0.1085
  131POPC   O3217461   4.899   5.088   2.901  0.2811  0.3432  0.1602
  131POPC   C3217462   4.779   5.025   3.112 -0.5282 -0.5258 -0.2666
  131POPC   H2X17463   4.668   5.013   3.114 -0.3076 -2.7317 -0.5834
  131POPC   H2Y17464   4.797   5.090   3.200 -1.4329  0.6256 -0.9135
  131POPC   C2317465   4.302   4.777   2.825 -0.1397  0.2723 -0.0797
  131POPC   H3R17466   4.382   4.709   2.788 -1.9397 -0.8207 -2.0884
  131POPC   H3S17467   4.260   4.810   2.728  0.4744  0.6916 -0.2110
  131POPC   C2417468   4.191   4.723   2.915  0.2012  0.4143  0.4287
  131POPC   H4R17469   4.249   4.703   3.008 -1.1433  0.9047  1.3885
  131POPC   H4S17470   4.154   4.630   2.866 -0.5778 -0.3122  2.3561
  131POPC   C2517471   4.074   4.810   2.960 -0.4322 -0.4134  0.3994
  131POPC   H5R17472   4.024   4.842   2.866  0.2480  0.3568  0.2954
  131POPC   H5S17473   4.111   4.907   3.000  1.8293 -1.7829  1.6986
  131POPC   C2617474   3.984   4.743   3.064  0.0658 -0.4273  0.8250
  131POPC   H6R17475   3.907   4.817   3.096  1.5306  0.7211  1.7882
  131POPC   H6S17476   4.042   4.720   3.155  0.6745  2.6461  1.2814
  131POPC   C2717477   3.914   4.613   3.023 -0.3143 -0.0936  0.4046
  131POPC   H7R17478   3.995   4.540   3.002 -0.0030  0.4291 -0.2524
  131POPC   H7S17479   3.847   4.630   2.936  0.8957  2.6042 -0.0420
  131POPC   C2817480   3.832   4.558   3.140 -0.6401  0.2906  0.3575
  131POPC   H8R17481   3.756   4.637   3.154 -1.9065 -0.5528 -1.4800
  131POPC   H8S17482   3.905   4.544   3.223 -0.5475  0.3020  0.2790
  131POPC   C2917483   3.750   4.434   3.118 -0.5767  0.2551  0.3212
  131POPC   H9117484   3.732   4.408   3.013 -1.5596  3.0742 -0.2665
  131POPC  C21017485   3.705   4.350   3.212 -0.0285 -0.2231  0.1591
  131POPC  H10117486   3.638   4.269   3.180  1.8486 -1.1778 -1.4930
  131POPC  C21117487   3.722   4.385   3.357 -0.2028 -0.0326  0.1328
  131POPC  H11R17488   3.640   4.450   3.397 -3.0307 -1.2386 -3.4393
  131POPC  H11S17489   3.815   4.439   3.382 -1.3569  2.1932 -0.1675
  131POPC  C21217490   3.732   4.249   3.426  0.4911 -0.2023 -0.2984
  131POPC  H12R17491   3.803   4.186   3.369 -1.7106 -0.5958 -2.7420
  131POPC  H12S17492   3.633   4.200   3.412  0.5599 -1.3422  2.8401
  131POPC  C21317493   3.765   4.260   3.575  0.5059 -0.2838 -0.2958
  131POPC  H13R17494   3.687   4.327   3.616  1.8552  0.2075  1.4881
  131POPC  H13S17495   3.867   4.304   3.585 -0.2511  1.5776 -0.7097
  131POPC  C21417496   3.764   4.132   3.659  0.1986 -0.1015 -0.0230
  131POPC  H14R17497   3.851   4.070   3.630 -0.1084  0.2633 -1.8356
  131POPC  H14S17498   3.668   4.076   3.650  0.0302  0.3196 -0.8930
  131POPC  C21517499   3.771   4.165   3.808 -0.4582 -0.5827  0.1180
  131POPC  H15R17500   3.845   4.244   3.835  0.3299 -1.2076 -0.2091
  131POPC  H15S17501   3.672   4.209   3.832 -1.1241 -2.4132  0.7964
  131POPC  C21617502   3.804   4.047   3.899 -0.2671 -0.1442  0.6252
  131POPC  H16R17503   3.894   4.073   3.958 -0.8728 -0.5174  1.7194
  131POPC  H16S17504   3.839   3.959   3.841 -0.9399 -0.3224  0.4809
  131POPC  C21717505   3.688   4.020   3.995 -0.8787 -0.1392 -0.1069
  131POPC  H17R17506   3.659   4.116   4.044  2.3063 -0.2205  2.1249
  131POPC  H17S17507   3.721   3.945   4.070 -1.5476  0.1995  0.5324
  131POPC  C21817508   3.560   3.963   3.934 -0.8203 -0.2183 -0.1563
  131POPC  H18R17509   3.488   3.912   4.002 -2.2145  0.9452 -0.7299
  131POPC  H18S17510   3.589   3.883   3.862 -1.8738 -0.2278 -0.5775
  131POPC  H18T17511   3.508   4.044   3.879  0.5079 -0.0297 -1.1567
  131POPC   C3317512   4.868   4.902   3.128  0.4115  0.1798 -0.0806
  131POPC   H3X17513   4.958   4.927   3.189  0.7535  0.2075 -0.5919
  131POPC   H3Y17514   4.910   4.875   3.029  0.4165 -1.1065  0.2645
  131POPC   C3417515   4.795   4.777   3.178 -0.0121  0.4272 -0.0824
  131POPC   H4X17516   4.722   4.802   3.258 -1.8375 -2.1074 -0.8960
  131POPC   H4Y17517   4.866   4.703   3.221 -1.8003 -0.5211  1.2764
  131POPC   C3517518   4.712   4.705   3.072 -0.4107  0.3703  0.2696
  131POPC   H5X17519   4.789   4.657   3.008 -0.7093 -1.0436  0.9398
  131POPC   H5Y17520   4.642   4.776   3.023 -0.3788  1.3509  1.6325
  131POPC   C3617521   4.618   4.600   3.132  0.0891 -0.3455 -0.1972
  131POPC   H6X17522   4.675   4.522   3.187  0.4261  0.4740  0.6114
  131POPC   H6Y17523   4.578   4.543   3.045 -0.3745 -1.4263  0.7218
  131POPC   C3717524   4.499   4.646   3.217 -0.5419  0.2356 -1.3827
  131POPC   H7X17525   4.443   4.724   3.160 -1.9133 -0.5649 -1.1536
  131POPC   H7Y17526   4.535   4.694   3.310 -2.7917 -1.5911  0.4800
  131POPC   C3817527   4.402   4.529   3.237 -0.1660  0.1680  0.0970
  131POPC   H8X17528   4.457   4.437   3.264 -0.2464 -0.2453 -1.1104
  131POPC   H8Y17529   4.342   4.512   3.145 -0.3523  1.7171 -0.0773
  131POPC   C3917530   4.309   4.550   3.356  0.1742  0.0098  0.3923
  131POPC   H9X17531   4.364   4.540   3.452  0.7773  0.2334  0.0753
  131POPC   H9Y17532   4.240   4.463   3.355 -0.1459  0.2695 -0.3260
  131POPC  C31017533   4.238   4.686   3.355 -0.2231 -0.2013 -0.1441
  131POPC  H10X17534   4.219   4.718   3.251  0.6841  3.1605  0.6600
  131POPC  H10Y17535   4.290   4.767   3.410  0.4193  0.4712 -1.7111
  131POPC  C31117536   4.095   4.686   3.412 -0.1440  0.1657  0.0525
  131POPC  H11X17537   4.039   4.597   3.376 -0.5671  0.0829  0.9072
  131POPC  H11Y17538   4.035   4.775   3.382 -1.1385 -0.1949  0.9873
  131POPC  C31217539   4.090   4.674   3.564  0.1200  0.1012  0.0577
  131POPC  H12X17540   4.110   4.769   3.618 -0.6823  1.4706 -1.9886
  131POPC  H12Y17541   4.178   4.612   3.592  0.3434 -0.1933 -1.2496
  131POPC  C31317542   3.959   4.608   3.608  0.1765 -0.3747 -0.4764
  131POPC  H13X17543   3.968   4.580   3.716 -2.4681  2.3901  0.5541
  131POPC  H13Y17544   3.960   4.510   3.556  1.1758 -2.0261  2.4923
  131POPC  C31417545   3.840   4.694   3.564  0.2581  0.1302  0.2722
  131POPC  H14X17546   3.833   4.686   3.454 -0.0651 -0.1608  0.3161
  131POPC  H14Y17547   3.855   4.803   3.583  0.9214  0.7204 -3.3401
  131POPC  C31517548   3.706   4.646   3.621  0.3222 -0.4426 -0.0582
  131POPC  H15X17549   3.720   4.662   3.730  0.2596 -0.1066 -0.0973
  131POPC  H15Y17550   3.693   4.540   3.590  0.9629 -0.9790  1.4381
  131POPC  C31617551   3.580   4.715   3.568  0.3890 -0.0893  0.2431
  131POPC  H16X17552   3.562   4.680   3.464  1.5110 -0.6126  0.2171
  131POPC  H16Y17553   3.599   4.824   3.576 -1.8488  0.4228 -1.0516
  131POPC  H16Z17554   3.497   4.683   3.634  1.8727 -3.0373  0.7611
  132POPC     N17555   7.441   3.568   1.861  0.4352  0.0258 -0.0165
  132POPC   C1217556   7.494   3.668   1.961 -0.2824  0.2343  0.1572
  132POPC  H12A17560   7.413   3.733   1.991  0.0184  0.3650  0.6938
  132POPC  H12B17561   7.561   3.728   1.901 -2.3626  0.1629 -2.3159
  132POPC   C1317557   7.532   3.449   1.839  0.1862 -0.1812  0.0574
  132POPC  H13A17562   7.484   3.385   1.767  0.6564  0.6735 -1.0514
  132POPC  H13B17563   7.627   3.478   1.796  0.2829 -2.4024 -1.2848
  132POPC  H13C17564   7.548   3.395   1.931  1.0940 -0.0948 -0.0395
  132POPC   C1417558   7.314   3.504   1.912  0.4088 -0.2998 -0.4855
  132POPC  H14A17565   7.333   3.485   2.016 -2.1140 -1.5584 -0.2245
  132POPC  H14B17566   7.226   3.566   1.901  1.4068  0.9160 -1.7841
  132POPC  H14C17567   7.294   3.413   1.858  0.7064 -1.2051  0.9217
  132POPC   C1517559   7.417   3.626   1.723 -0.1222  0.0519  0.0888
  132POPC  H15A17568   7.349   3.563   1.668  2.3922 -0.2188 -2.9122
  132POPC  H15B17569   7.512   3.628   1.671  0.1572  0.3876  0.6047
  132POPC  H15C17570   7.382   3.727   1.733 -2.9534 -1.0633  2.1182
  132POPC   C1117571   7.559   3.613   2.088 -0.5339  0.0886  0.2248
  132POPC  H11A17572   7.587   3.704   2.147 -2.3229 -0.3598  1.7980
  132POPC  H11B17573   7.648   3.556   2.053 -0.2197  1.8805 -1.9776
  132POPC     P17574   7.416   3.573   2.290  0.2335 -0.0045 -0.2089
  132POPC   O1317575   7.390   3.454   2.374 -0.2847  0.0230 -0.3243
  132POPC   O1417576   7.295   3.649   2.253 -0.0904 -0.3341  0.1605
  132POPC   O1217577   7.486   3.513   2.159 -0.2429 -0.4669 -0.2551
  132POPC   O1117578   7.530   3.660   2.360  0.0316 -0.2061  0.3775
  132POPC    C117579   7.650   3.605   2.416  0.0946 -0.5104 -0.0498
  132POPC    HA17580   7.727   3.684   2.408  0.8831 -1.3439 -0.8221
  132POPC    HB17581   7.680   3.522   2.349  0.9691  0.6943 -1.1850
  132POPC    C217582   7.625   3.555   2.559 -0.3114 -0.2765 -0.0370
  132POPC    HS17583   7.551   3.472   2.558 -0.3208 -0.2620 -0.3764
  132POPC   O2117584   7.578   3.665   2.637 -0.0738  0.1880 -0.5482
  132POPC   C2117585   7.473   3.639   2.716 -0.3079  0.1812 -0.8585
  132POPC   O2217586   7.419   3.531   2.730  0.2426 -0.0158 -0.1946
  132POPC   C2217587   7.430   3.771   2.778 -0.0323 -0.3867  0.5494
  132POPC   H2R17588   7.441   3.849   2.700  1.6436 -0.3644  0.7847
  132POPC   H2S17589   7.488   3.803   2.868  0.0904  0.7255  0.0876
  132POPC    C317590   7.757   3.507   2.623 -0.1230  0.0550 -0.1744
  132POPC    HX17591   7.812   3.601   2.642  0.1297 -0.2102  0.4037
  132POPC    HY17592   7.819   3.455   2.546  0.9393  0.0116  0.7171
  132POPC   O3117593   7.747   3.429   2.742 -0.4798  0.5085  0.0958
  132POPC   C3117594   7.701   3.304   2.727 -0.0568  0.3364  0.2003
  132POPC   O3217595   7.705   3.241   2.622  0.1699 -0.3124  0.5981
  132POPC   C3217596   7.637   3.249   2.854  0.2330 -0.2896  0.0759
  132POPC   H2X17597   7.616   3.331   2.926  3.6843  0.6933  0.0690
  132POPC   H2Y17598   7.708   3.189   2.914 -0.8116 -0.1419  1.4664
  132POPC   C2317599   7.289   3.756   2.835 -0.4437  0.1851 -0.3104
  132POPC   H3R17600   7.219   3.731   2.752 -1.9464  3.9655 -0.2841
  132POPC   H3S17601   7.265   3.856   2.877 -0.7286  0.0451 -0.1361
  132POPC   C2417602   7.282   3.666   2.959  0.8978  0.2019 -0.2156
  132POPC   H4R17603   7.377   3.676   3.016 -0.0804  1.4345  1.2430
  132POPC   H4S17604   7.274   3.562   2.922 -0.1900 -0.2474  1.2336
  132POPC   C2517605   7.174   3.716   3.055  0.2519 -0.8531 -0.3857
  132POPC   H5R17606   7.077   3.720   3.000  0.2171  0.5722 -0.2454
  132POPC   H5S17607   7.199   3.819   3.088 -0.5993 -0.3325 -1.3523
  132POPC   C2617608   7.156   3.625   3.176  0.2444  0.0319  0.2845
  132POPC   H6R17609   7.072   3.662   3.240  1.8543  1.3374  1.6727
  132POPC   H6S17610   7.251   3.641   3.231 -0.0964  0.2918  0.8076
  132POPC   C2717611   7.122   3.478   3.148  0.4803 -0.0331  0.3358
  132POPC   H7R17612   7.216   3.421   3.134 -0.2738 -0.7203 -2.1591
  132POPC   H7S17613   7.087   3.458   3.044  1.4421  1.3623 -0.2780
  132POPC   C2817614   7.024   3.405   3.241  0.6593 -0.3423  0.2815
  132POPC   H8R17615   6.931   3.465   3.230  0.9961  0.5914  2.3074
  132POPC   H8S17616   7.053   3.404   3.348  0.8609 -0.4372  0.2266
  132POPC   C2917617   7.017   3.265   3.187  0.2649 -0.2524  0.1018
  132POPC   H9117618   6.940   3.255   3.108  0.9339  1.2104 -0.7794
  132POPC  C21017619   7.077   3.157   3.238 -0.4610 -0.5037  0.4352
  132POPC  H10117620   7.058   3.060   3.192 -1.7213  0.5778 -1.3854
  132POPC  C21117621   7.180   3.149   3.347 -0.1759  0.6606  0.2619
  132POPC  H11R17622   7.199   3.250   3.389 -1.3253 -0.5802  3.9510
  132POPC  H11S17623   7.281   3.114   3.316 -0.4132  0.5886 -0.4378
  132POPC  C21217624   7.116   3.059   3.453 -0.2924  0.2467 -0.1591
  132POPC  H12R17625   7.194   3.036   3.528  0.3550  0.8982 -0.6255
  132POPC  H12S17626   7.090   2.967   3.397  0.0890  1.5223 -2.5174
  132POPC  C21317627   6.982   3.103   3.514 -0.5016 -0.8034  0.1409
  132POPC  H13R17628   6.905   3.081   3.437  1.5784 -2.7299 -1.4820
  132POPC  H13S17629   6.986   3.211   3.536  0.3299 -0.5245 -1.3341
  132POPC  C21417630   6.948   3.023   3.640 -0.2732 -0.8634  0.1649
  132POPC  H14R17631   7.023   3.066   3.710  0.0654 -0.7740 -0.2437
  132POPC  H14S17632   6.950   2.914   3.618 -2.7880 -1.4478  2.6595
  132POPC  C21517633   6.805   3.053   3.685 -0.1827  0.0947 -0.1683
  132POPC  H15R17634   6.792   3.000   3.782  1.7812 -0.3430 -0.1174
  132POPC  H15S17635   6.741   2.996   3.614  1.6724  0.2480 -2.0371
  132POPC  C21617636   6.765   3.199   3.698  0.3690  0.2262  0.0711
  132POPC  H16R17637   6.769   3.254   3.601  1.0865 -0.7922 -0.4760
  132POPC  H16S17638   6.824   3.255   3.774  0.8687 -3.4890  2.5232
  132POPC  C21717639   6.616   3.219   3.730  0.2834 -0.0627 -0.1472
  132POPC  H17R17640   6.554   3.266   3.651  0.2148 -0.0537 -0.0879
  132POPC  H17S17641   6.618   3.291   3.815 -1.1384  1.6681 -1.5307
  132POPC  C21817642   6.531   3.106   3.786  0.3363 -0.1128 -0.1673
  132POPC  H18R17643   6.517   3.031   3.705  0.6532  1.6175 -1.8561
  132POPC  H18S17644   6.432   3.153   3.805 -0.0760 -1.1815  0.3272
  132POPC  H18T17645   6.573   3.080   3.886 -1.4298 -0.9623  0.3749
  132POPC   C3317646   7.499   3.190   2.824  0.3399 -0.5306  0.0635
  132POPC   H3X17647   7.510   3.081   2.803 -1.4491 -1.7742  4.8948
  132POPC   H3Y17648   7.463   3.242   2.733  1.1495  2.0193  1.1697
  132POPC   C3417649   7.406   3.203   2.944 -0.2720 -0.0650 -0.4630
  132POPC   H4X17650   7.328   3.283   2.933  1.5041  1.5699 -1.4067
  132POPC   H4Y17651   7.460   3.225   3.039  2.0449 -3.2219 -0.9784
  132POPC   C3517652   7.324   3.074   2.950 -0.3084 -0.0183  0.0576
  132POPC   H5X17653   7.297   3.047   2.846  2.0039  0.5101 -0.6989
  132POPC   H5Y17654   7.230   3.098   3.004 -0.0555  2.2942 -0.4694
  132POPC   C3617655   7.407   2.970   3.026 -0.5404 -0.0550  0.2615
  132POPC   H6X17656   7.473   3.023   3.098 -0.7124  1.0093 -0.3507
  132POPC   H6Y17657   7.474   2.918   2.954  0.7334 -2.8373  3.3339
  132POPC   C3717658   7.315   2.864   3.087  0.0019 -0.7354 -0.0953
  132POPC   H7X17659   7.250   2.839   3.000  0.1524  0.0260 -0.4278
  132POPC   H7Y17660   7.259   2.901   3.175 -0.8612  0.1757 -1.0121
  132POPC   C3817661   7.393   2.745   3.143  0.2127 -0.5802 -0.0571
  132POPC   H8X17662   7.454   2.759   3.234 -0.0442 -0.9632  0.1755
  132POPC   H8Y17663   7.458   2.711   3.059 -0.1578 -0.7067 -0.2953
  132POPC   C3917664   7.292   2.634   3.172 -0.0923 -0.3751 -0.3262
  132POPC   H9X17665   7.338   2.533   3.179 -1.5192 -0.9704  0.6864
  132POPC   H9Y17666   7.222   2.625   3.087 -2.2520 -2.0676  1.5650
  132POPC  C31017667   7.224   2.650   3.309  0.6914  0.2860 -0.0041
  132POPC  H10X17668   7.136   2.582   3.310  1.4039 -0.6536  1.9817
  132POPC  H10Y17669   7.195   2.755   3.328 -0.8567  0.3031 -2.2039
  132POPC  C31117670   7.318   2.608   3.422 -0.0600 -0.5613  0.3171
  132POPC  H11X17671   7.417   2.659   3.416 -0.7806  0.7835 -0.4337
  132POPC  H11Y17672   7.343   2.500   3.426 -0.8275 -0.7112  1.5115
  132POPC  C31217673   7.260   2.640   3.560 -0.1091 -0.8388  0.3602
  132POPC  H12X17674   7.157   2.597   3.565 -0.9844  1.1134 -0.4097
  132POPC  H12Y17675   7.257   2.751   3.563  0.0434 -0.7202 -2.3301
  132POPC  C31317676   7.351   2.585   3.670  0.7595  0.2428  0.1888
  132POPC  H13X17677   7.402   2.494   3.634 -0.0468  0.0721 -0.5271
  132POPC  H13Y17678   7.284   2.553   3.753  0.8436  0.8988  0.5139
  132POPC  C31417679   7.433   2.702   3.725  0.5498  0.4829 -0.0103
  132POPC  H14X17680   7.374   2.796   3.720 -0.9990 -0.5034 -0.9190
  132POPC  H14Y17681   7.516   2.720   3.653  1.1425 -0.6588  0.3808
  132POPC  C31517682   7.479   2.678   3.868  0.1322  0.1037  0.0611
  132POPC  H15X17683   7.519   2.574   3.870 -0.4484 -0.1225 -0.0258
  132POPC  H15Y17684   7.393   2.680   3.937 -0.5454  0.8445 -0.8030
  132POPC  C31617685   7.587   2.775   3.918  0.4011 -0.0524 -0.2167
  132POPC  H16X17686   7.551   2.879   3.904  2.6452  0.6667 -0.9313
  132POPC  H16Y17687   7.683   2.762   3.863  1.3791 -1.9853  1.8462
  132POPC  H16Z17688   7.600   2.762   4.027 -0.7283  1.3844  0.0902
  133POPC     N17689   3.563   3.956   2.175 -0.0740  0.1599 -0.1986
  133POPC   C1217690   3.655   3.900   2.280  0.0679  0.1591 -0.3225
  133POPC  H12A17694   3.626   3.947   2.373 -1.4892  2.9888 -2.1658
  133POPC  H12B17695   3.749   3.948   2.257  0.1526 -0.5544 -1.5024
  133POPC   C1317691   3.631   3.920   2.045 -0.5170  0.3310 -0.4770
  133POPC  H13A17696   3.597   3.819   2.031 -1.3722  0.5609 -0.1128
  133POPC  H13B17697   3.588   3.988   1.972 -0.8144  1.2877  0.5847
  133POPC  H13C17698   3.738   3.922   2.053 -0.6279 -1.7753  2.1441
  133POPC   C1417692   3.426   3.893   2.188 -0.1888  0.4402 -0.0343
  133POPC  H14A17699   3.438   3.787   2.171 -1.3045  0.4425 -0.8544
  133POPC  H14B17700   3.395   3.913   2.289 -0.0281  2.0600 -0.2807
  133POPC  H14C17701   3.357   3.937   2.118 -1.8070 -0.1844  1.1548
  133POPC   C1517693   3.538   4.105   2.174 -0.3846  0.1069 -0.2121
  133POPC  H15A17702   3.496   4.150   2.262  1.3123  0.8059  0.2563
  133POPC  H15B17703   3.477   4.126   2.087 -1.8043  0.3710  0.8320
  133POPC  H15C17704   3.638   4.145   2.166 -0.3401  0.0223 -0.0580
  133POPC   C1117705   3.672   3.748   2.290 -0.4182  0.0868 -0.6054
  133POPC  H11A17706   3.584   3.712   2.347  1.1749  0.4136  2.1261
  133POPC  H11B17707   3.765   3.732   2.348  0.5884  0.5746 -2.0441
  133POPC     P17708   3.650   3.515   2.201 -0.0388 -0.0559  0.0180
  133POPC   O1317709   3.716   3.439   2.093  0.4620  1.0453 -0.4560
  133POPC   O1417710   3.502   3.510   2.189  0.0126 -0.3179 -0.4956
  133POPC   O1217711   3.686   3.668   2.172 -0.0276 -0.1385 -0.4046
  133POPC   O1117712   3.700   3.480   2.349  0.3019 -0.3444 -0.1652
  133POPC    C117713   3.624   3.374   2.407  0.4251 -0.2312  0.2044
  133POPC    HA17714   3.686   3.338   2.492  0.0711 -0.9334  0.1668
  133POPC    HB17715   3.590   3.295   2.337  1.8515  0.1403 -0.9312
  133POPC    C217716   3.500   3.428   2.481  0.5176 -0.3680  0.4623
  133POPC    HS17717   3.441   3.474   2.399  2.8531  0.5180 -0.7867
  133POPC   O2117718   3.538   3.529   2.575 -0.0450 -0.1936  0.5022
  133POPC   C2117719   3.432   3.590   2.628 -0.4174 -0.5019  0.1218
  133POPC   O2217720   3.319   3.595   2.582 -0.3410 -0.0830 -0.0235
  133POPC   C2217721   3.473   3.655   2.759  0.1469 -0.0906 -0.2549
  133POPC   H2R17722   3.388   3.716   2.798  0.9897  1.6060 -1.0210
  133POPC   H2S17723   3.543   3.737   2.731 -0.2238 -0.3524 -1.9927
  133POPC    C317724   3.415   3.320   2.550 -0.1499 -0.0463  0.1488
  133POPC    HX17725   3.382   3.259   2.463 -0.9605  0.2078  0.2711
  133POPC    HY17726   3.322   3.352   2.601 -0.4132  1.3788 -1.1838
  133POPC   O3117727   3.492   3.253   2.650 -0.0498 -0.0338  0.0806
  133POPC   C3117728   3.431   3.142   2.693 -0.4340  0.1654  0.0529
  133POPC   O3217729   3.325   3.108   2.645 -0.0192  0.6849 -1.2480
  133POPC   C3217730   3.519   3.077   2.799  0.0790 -0.4894 -0.7727
  133POPC   H2X17731   3.469   3.083   2.898  0.5146 -2.9926 -0.3676
  133POPC   H2Y17732   3.616   3.132   2.810 -0.5423 -0.0180  2.9362
  133POPC   C2317733   3.526   3.540   2.845 -0.1491 -0.1988 -0.2151
  133POPC   H3R17734   3.594   3.575   2.925 -2.7256 -0.2039  2.0289
  133POPC   H3S17735   3.591   3.472   2.786 -1.5773 -0.4996 -1.4747
  133POPC   C2417736   3.418   3.473   2.930  0.0384 -0.2906 -0.0492
  133POPC   H4R17737   3.452   3.372   2.961 -0.8103 -0.9164 -1.1059
  133POPC   H4S17738   3.330   3.447   2.868  1.4581 -0.8436 -1.8678
  133POPC   C2517739   3.383   3.570   3.043  0.2112 -0.0886 -0.1665
  133POPC   H5R17740   3.356   3.666   2.996 -1.0483 -0.0179  0.6846
  133POPC   H5S17741   3.470   3.590   3.109 -1.6147 -0.6802  2.5163
  133POPC   C2617742   3.276   3.527   3.144  0.2048 -0.3001 -0.2617
  133POPC   H6R17743   3.182   3.515   3.086  0.4358  0.6046 -0.8335
  133POPC   H6S17744   3.258   3.613   3.212 -2.4565 -0.4180 -0.7704
  133POPC   C2717745   3.309   3.396   3.215  0.0013 -0.1928  0.0301
  133POPC   H7R17746   3.410   3.398   3.262  0.2860 -2.8320 -0.3954
  133POPC   H7S17747   3.307   3.303   3.155  1.8523 -0.8162  0.8786
  133POPC   C2817748   3.211   3.387   3.332  0.3152 -0.0216  0.3068
  133POPC   H8R17749   3.106   3.375   3.300 -0.0748  0.8962  1.1943
  133POPC   H8S17750   3.206   3.481   3.391  3.0231  0.0887  0.4418
  133POPC   C2917751   3.259   3.272   3.417  0.2053 -0.2750  0.0230
  133POPC   H9117752   3.334   3.209   3.367 -0.6902 -0.2425 -1.3959
  133POPC  C21017753   3.219   3.223   3.535 -0.0868 -0.1368 -0.0166
  133POPC  H10117754   3.266   3.133   3.577  2.5032  0.9301 -0.5541
  133POPC  C21117755   3.119   3.287   3.628 -0.5642  0.0734 -0.6703
  133POPC  H11R17756   3.091   3.393   3.617 -0.4005  0.0600 -1.2455
  133POPC  H11S17757   3.149   3.274   3.734 -0.8339  0.0110 -0.6020
  133POPC  C21217758   2.990   3.204   3.624 -0.5043 -0.0622  0.1838
  133POPC  H12R17759   3.014   3.096   3.625 -1.2995 -0.2489 -0.6674
  133POPC  H12S17760   2.934   3.214   3.529 -0.8093  1.3781  0.4986
  133POPC  C21317761   2.892   3.221   3.740 -0.4277 -0.2060  0.2698
  133POPC  H13R17762   2.872   3.329   3.756  0.6108 -0.0524  0.5620
  133POPC  H13S17763   2.943   3.191   3.834  0.2668  0.2221  0.0348
  133POPC  C21417764   2.766   3.135   3.725 -0.3984 -0.1699 -0.2047
  133POPC  H14R17765   2.785   3.030   3.695  0.5889 -0.0940  0.1237
  133POPC  H14S17766   2.705   3.178   3.643 -1.1188  2.3576  1.5758
  133POPC  C21517767   2.687   3.145   3.855 -0.1735  0.0168 -0.0808
  133POPC  H15R17768   2.651   3.247   3.879 -1.7444 -0.5631  0.1521
  133POPC  H15S17769   2.756   3.119   3.938  0.6038  0.2172 -0.6607
  133POPC  C21617770   2.567   3.049   3.847 -0.3369  0.2262 -0.1422
  133POPC  H16R17771   2.606   2.948   3.823 -0.4320 -0.5696  2.8536
  133POPC  H16S17772   2.502   3.079   3.762  0.5115  1.7823 -0.2734
  133POPC  C21717773   2.480   3.045   3.972  0.5389 -0.4324  0.4526
  133POPC  H17R17774   2.422   3.140   3.972  0.0748 -0.7106 -0.3633
  133POPC  H17S17775   2.549   3.038   4.060 -0.5935  2.7905  1.6688
  133POPC  C21817776   2.380   2.930   3.970  0.2882 -0.2035 -0.1041
  133POPC  H18R17777   2.299   2.936   4.046  1.7685 -0.1868  1.4962
  133POPC  H18S17778   2.424   2.828   3.969 -1.5165 -1.0073 -1.2550
  133POPC  H18T17779   2.334   2.930   3.868 -0.7622 -0.0009  0.3683
  133POPC   C3317780   3.539   2.933   2.752 -0.0792 -0.6506 -0.3483
  133POPC   H3X17781   3.598   2.932   2.658 -0.3288 -0.7136 -0.5067
  133POPC   H3Y17782   3.440   2.885   2.734 -0.8054  0.6450  0.1066
  133POPC   C3417783   3.617   2.847   2.851  0.1461 -0.0637 -0.0156
  133POPC   H4X17784   3.644   2.748   2.808 -0.8758 -1.3570  2.2349
  133POPC   H4Y17785   3.547   2.823   2.934 -0.5658 -0.4791 -0.7326
  133POPC   C3517786   3.745   2.911   2.904 -0.0040  0.2473 -0.0272
  133POPC   H5X17787   3.706   2.995   2.965  0.5840 -0.3223  1.1632
  133POPC   H5Y17788   3.810   2.954   2.825  1.4479 -1.8154 -0.0029
  133POPC   C3617789   3.822   2.819   2.999  0.1053 -0.1151 -0.4668
  133POPC   H6X17790   3.864   2.736   2.937  1.7247  0.3430 -0.0112
  133POPC   H6Y17791   3.752   2.777   3.074 -0.3081  0.3560 -0.5873
  133POPC   C3717792   3.949   2.861   3.074 -0.2594 -0.1497  0.1709
  133POPC   H7X17793   4.003   2.943   3.022  1.1919 -1.3557 -0.2660
  133POPC   H7Y17794   4.016   2.774   3.087  2.7357  2.0541  0.0031
  133POPC   C3817795   3.899   2.912   3.209 -0.5226 -0.7241  0.2939
  133POPC   H8X17796   3.856   2.828   3.266 -1.2813  0.0733  0.9170
  133POPC   H8Y17797   3.829   2.998   3.192  1.3774  0.2380 -3.1478
  133POPC   C3917798   4.022   2.961   3.286 -0.0997 -0.1937 -0.7069
  133POPC   H9X17799   4.073   3.033   3.219 -0.8038  0.8534 -0.1267
  133POPC   H9Y17800   4.085   2.874   3.315 -0.9371 -0.6064 -0.0925
  133POPC  C31017801   3.985   3.032   3.416  0.1803 -0.3264 -0.5545
  133POPC  H10X17802   3.910   2.985   3.484  1.0986  1.8395  2.0514
  133POPC  H10Y17803   3.939   3.131   3.401  1.2355  0.2739  0.0724
  133POPC  C31117804   4.111   3.066   3.496 -0.3163  0.0178  0.0864
  133POPC  H11X17805   4.167   2.971   3.507  0.5759  0.6715  1.3038
  133POPC  H11Y17806   4.065   3.104   3.589  0.2246  2.8113 -0.7478
  133POPC  C31217807   4.214   3.172   3.455  0.2633 -0.4087  0.4348
  133POPC  H12X17808   4.259   3.158   3.355 -0.4806 -0.4739  0.1075
  133POPC  H12Y17809   4.275   3.163   3.548 -2.8339  0.7276  2.6607
  133POPC  C31317810   4.158   3.313   3.439  0.1248 -0.5451 -0.2818
  133POPC  H13X17811   4.112   3.345   3.535  1.1342 -3.1180  1.1062
  133POPC  H13Y17812   4.079   3.314   3.360 -1.0037  0.9485  0.8398
  133POPC  C31417813   4.264   3.421   3.415 -0.2959 -0.1510 -0.3877
  133POPC  H14X17814   4.210   3.518   3.420  0.7224  0.4451 -0.7388
  133POPC  H14Y17815   4.306   3.423   3.312  1.2995  1.7843  0.2717
  133POPC  C31517816   4.378   3.428   3.517 -0.5289  0.1893 -0.1523
  133POPC  H15X17817   4.443   3.514   3.491 -1.4649  0.3607 -1.9875
  133POPC  H15Y17818   4.443   3.338   3.512  0.9489  1.1483  1.2475
  133POPC  C31617819   4.333   3.451   3.661  0.2936 -0.2371  0.1784
  133POPC  H16X17820   4.255   3.531   3.669 -0.5217 -0.9783 -0.2168
  133POPC  H16Y17821   4.418   3.490   3.720  2.3028 -2.3541 -1.2723
  133POPC  H16Z17822   4.292   3.359   3.709  1.3215 -0.4531  0.6333
  134POPC     N17823   1.923   7.064   1.682 -0.1283  0.3701  0.2856
  134POPC   C1217824   1.851   7.137   1.792 -0.3735  0.0806  0.3180
  134POPC  H12A17828   1.751   7.097   1.779  0.1450 -1.2151  0.3553
  134POPC  H12B17829   1.851   7.244   1.773 -0.9861 -0.4924 -3.3277
  134POPC   C1317825   1.881   7.126   1.551 -0.5835  0.2532  0.3746
  134POPC  H13A17830   1.774   7.114   1.541 -0.3549 -2.4573  0.9203
  134POPC  H13B17831   1.900   7.233   1.549  3.6077 -0.4080 -1.1254
  134POPC  H13C17832   1.932   7.080   1.468  0.9714  0.1359  1.3745
  134POPC   C1417826   2.069   7.091   1.712  0.0973 -0.2410 -0.2410
  134POPC  H14A17833   2.085   7.194   1.740 -0.1268  0.3559 -2.2137
  134POPC  H14B17834   2.110   7.025   1.786  1.0913 -2.0935 -2.3830
  134POPC  H14C17835   2.116   7.080   1.616 -0.1589 -0.3526 -0.3564
  134POPC   C1517827   1.886   6.917   1.684  0.4137  0.2350  0.4008
  134POPC  H15A17836   1.949   6.861   1.616  1.0363 -1.1795  2.1200
  134POPC  H15B17837   1.782   6.894   1.673  0.5324 -0.4851  0.7570
  134POPC  H15C17838   1.916   6.876   1.779 -1.0617 -1.8885 -0.0208
  134POPC   C1117839   1.907   7.113   1.932 -0.7593 -0.0970  0.4412
  134POPC  H11A17840   1.833   7.157   2.003 -1.6328  1.1601 -1.2207
  134POPC  H11B17841   1.997   7.177   1.935 -0.9912  0.3043 -1.0595
  134POPC     P17842   1.992   6.954   2.109  0.0173 -0.1649  0.0733
  134POPC   O1317843   2.135   6.926   2.084  0.0075 -0.2796  0.1437
  134POPC   O1417844   1.911   6.853   2.182 -0.1815  0.0209  0.1116
  134POPC   O1217845   1.925   6.975   1.966  0.3667 -0.0830 -0.0777
  134POPC   O1117846   1.979   7.094   2.185  0.2455  0.1597 -0.4906
  134POPC    C117847   2.092   7.146   2.256  0.1483 -0.3458  0.0357
  134POPC    HA17848   2.075   7.250   2.292  0.0334 -0.6123  0.7479
  134POPC    HB17849   2.184   7.148   2.192  0.2120  2.5956  0.1417
  134POPC    C217850   2.135   7.071   2.383  0.0393 -0.0497  0.2467
  134POPC    HS17851   2.169   6.972   2.347 -0.5668 -0.1764  0.0134
  134POPC   O2117852   2.028   7.051   2.476 -0.1670 -0.1694 -0.0147
  134POPC   C2117853   2.039   6.948   2.561  0.3666 -0.0361  0.0831
  134POPC   O2217854   2.127   6.864   2.569  0.5856  0.1815 -0.0430
  134POPC   C2217855   1.926   6.969   2.661  0.2025 -0.2945 -0.0471
  134POPC   H2R17856   1.824   6.964   2.617 -0.5630  1.9323  1.3747
  134POPC   H2S17857   1.925   7.062   2.722 -1.9063 -1.1112  1.2032
  134POPC    C317858   2.248   7.145   2.457  0.2664  0.7171 -0.8570
  134POPC    HX17859   2.320   7.169   2.375  0.3426 -0.0237 -1.0189
  134POPC    HY17860   2.301   7.074   2.524 -0.0957  3.1684  2.0953
  134POPC   O3117861   2.195   7.264   2.514 -0.0127 -0.1104  0.6445
  134POPC   C3117862   2.256   7.379   2.484 -0.2959 -0.1830 -0.2391
  134POPC   O3217863   2.363   7.394   2.427  0.2370  0.4755  0.9050
  134POPC   C3217864   2.167   7.488   2.542  0.2376  0.2319 -0.1945
  134POPC   H2X17865   2.161   7.462   2.650  0.1751  0.3630 -0.1661
  134POPC   H2Y17866   2.068   7.490   2.492 -0.0509  1.1328  0.3879
  134POPC   C2317867   1.922   6.848   2.756  0.2715  0.0832  0.4407
  134POPC   H3R17868   2.005   6.865   2.827 -1.6954  1.6100  2.4575
  134POPC   H3S17869   1.933   6.766   2.682 -1.5532  1.8875 -1.9434
  134POPC   C2417870   1.792   6.835   2.835 -0.5427 -0.1957 -0.9191
  134POPC   H4R17871   1.713   6.833   2.757 -1.9594  0.1101  0.4755
  134POPC   H4S17872   1.783   6.924   2.901  0.9138 -0.8364  0.1823
  134POPC   C2517873   1.784   6.713   2.927  0.0515  0.2127 -0.3224
  134POPC   H5R17874   1.884   6.702   2.974  0.1019 -1.6980 -0.8064
  134POPC   H5S17875   1.769   6.623   2.863 -1.3643  0.6015 -0.5450
  134POPC   C2617876   1.681   6.722   3.040  0.6352  0.4134  0.1967
  134POPC   H6R17877   1.579   6.693   3.006  1.3754 -0.7519 -1.1117
  134POPC   H6S17878   1.690   6.818   3.095  1.6091  1.0515 -1.0313
  134POPC   C2717879   1.705   6.630   3.159 -0.9611  0.0251  0.2255
  134POPC   H7R17880   1.808   6.644   3.199  0.3900 -0.9599 -2.7658
  134POPC   H7S17881   1.702   6.524   3.125  1.1982  0.1464 -0.4358
  134POPC   C2817882   1.601   6.653   3.269 -0.5742 -0.0507  0.6116
  134POPC   H8R17883   1.589   6.556   3.321  0.0616  0.1840  1.1905
  134POPC   H8S17884   1.502   6.683   3.226 -0.2069  1.0290  0.4888
  134POPC   C2917885   1.643   6.755   3.371  0.1463  0.3017 -0.0323
  134POPC   H9117886   1.747   6.760   3.406  0.8283  1.0959 -2.1058
  134POPC  C21017887   1.567   6.848   3.431  0.1972  0.0370  0.4455
  134POPC  H10117888   1.612   6.932   3.485 -0.5630  1.4766 -1.1098
  134POPC  C21117889   1.417   6.854   3.419  0.2225  0.8243  0.4900
  134POPC  H11R17890   1.366   6.784   3.489  0.2810  0.7663  0.4754
  134POPC  H11S17891   1.383   6.810   3.323  1.2422  1.0896 -0.0009
  134POPC  C21217892   1.371   6.998   3.442  0.1843  0.8916  0.0112
  134POPC  H12R17893   1.267   7.014   3.408 -0.3082  0.4040  1.2378
  134POPC  H12S17894   1.428   7.067   3.377  2.6162 -1.0128  0.0587
  134POPC  C21317895   1.388   7.049   3.586  0.1924 -0.0157  0.3374
  134POPC  H13R17896   1.339   7.147   3.600  1.3331  0.4714  0.9880
  134POPC  H13S17897   1.496   7.071   3.598 -0.1337  0.7666  1.8847
  134POPC  C21417898   1.336   6.969   3.705 -0.7147 -0.1227 -0.1309
  134POPC  H14R17899   1.390   6.873   3.712  1.4801  1.2011  1.4813
  134POPC  H14S17900   1.227   6.951   3.690 -0.5112 -1.5474  0.0234
  134POPC  C21517901   1.369   7.020   3.846 -0.0907 -0.1995 -0.2479
  134POPC  H15R17902   1.307   6.963   3.918  0.9493 -0.3689  0.5165
  134POPC  H15S17903   1.342   7.127   3.855 -1.2102 -0.5599  0.8731
  134POPC  C21617904   1.509   6.982   3.892  0.1721  0.4883 -0.4749
  134POPC  H16R17905   1.581   7.028   3.821 -0.3748  3.0357  0.5711
  134POPC  H16S17906   1.524   6.873   3.876 -1.2363  0.2195  0.0072
  134POPC  C21717907   1.541   7.013   4.038 -0.0088 -0.6897 -0.1791
  134POPC  H17R17908   1.468   6.949   4.093  0.3495 -0.4408  0.5959
  134POPC  H17S17909   1.524   7.122   4.055  0.2654 -0.6486 -0.1723
  134POPC  C21817910   1.683   6.968   4.072 -0.0641 -0.6004  0.1790
  134POPC  H18R17911   1.723   7.030   4.155 -1.1518 -1.2359  1.1934
  134POPC  H18S17912   1.742   6.997   3.983  0.7346  1.5390  1.3684
  134POPC  H18T17913   1.682   6.858   4.083 -2.8256 -0.5984  0.2776
  134POPC   C3317914   2.223   7.630   2.546 -0.0567  0.3372  0.3030
  134POPC   H3X17915   2.136   7.692   2.576  1.2622  3.7556 -2.5112
  134POPC   H3Y17916   2.242   7.653   2.439 -0.7973 -2.6544 -0.4930
  134POPC   C3417917   2.338   7.661   2.643  0.5262 -0.3650 -0.1581
  134POPC   H4X17918   2.413   7.584   2.615  0.5075 -0.3710 -0.1916
  134POPC   H4Y17919   2.307   7.660   2.750  0.1094  0.5493 -0.2635
  134POPC   C3517920   2.403   7.797   2.620  0.1993 -0.3179 -0.8188
  134POPC   H5X17921   2.330   7.872   2.657  0.2186 -0.8346  0.2758
  134POPC   H5Y17922   2.423   7.818   2.513 -1.6528 -1.2477 -1.3686
  134POPC   C3617923   2.536   7.807   2.696 -0.0956 -0.3289 -0.3002
  134POPC   H6X17924   2.615   7.841   2.627 -0.4690  1.5889  0.2036
  134POPC   H6Y17925   2.563   7.705   2.732 -0.7270 -0.1821  0.6111
  134POPC   C3717926   2.537   7.898   2.818 -0.2014 -0.9003  0.1323
  134POPC   H7X17927   2.462   7.856   2.888  0.3440  0.2560  1.4457
  134POPC   H7Y17928   2.517   0.045   2.804  0.2648 -0.8974 -0.8771
  134POPC   C3817929   2.673   7.898   2.890 -0.0029  0.4625 -0.2242
  134POPC   H8X17930   2.748   7.938   2.818 -0.5117  1.2796 -0.3164
  134POPC   H8Y17931   2.692   7.794   2.921  0.7857  0.6465 -0.0859
  134POPC   C3917932   2.675   0.024   3.015 -0.4693  0.0625  0.0939
  134POPC   H9X17933   2.671   0.127   2.975 -1.2170  0.4435  1.1251
  134POPC   H9Y17934   2.777   0.001   3.052 -0.6525 -0.3969  0.3263
  134POPC  C31017935   2.568   7.950   3.119 -0.0354 -0.4692  0.3689
  134POPC  H10X17936   2.577   7.841   3.141  2.0140 -0.1238  1.3836
  134POPC  H10Y17937   2.466   7.960   3.077 -0.7862 -0.3595  2.1763
  134POPC  C31117938   2.595   0.078   3.240 -0.5896 -0.3992  0.4707
  134POPC  H11X17939   2.511   0.150   3.235 -1.5835 -1.1695  4.6086
  134POPC  H11Y17940   2.683   0.143   3.221 -1.1440 -0.3566 -2.2016
  134POPC  C31217941   2.618   0.024   3.381 -0.4000 -0.3285  0.4674
  134POPC  H12X17942   2.623   0.111   3.451 -0.4468  0.2236 -0.2068
  134POPC  H12Y17943   2.718   7.938   3.382  0.2921  0.9266 -1.8566
  134POPC  C31317944   2.505   7.893   3.425 -0.8112  0.1160  0.4529
  134POPC  H13X17945   2.520   7.798   3.369  3.8511 -0.6817  2.7890
  134POPC  H13Y17946   2.407   7.939   3.403 -1.0104 -2.0696 -3.7246
  134POPC  C31417947   2.505   7.861   3.575 -0.3222  0.3397  0.4996
  134POPC  H14X17948   2.431   7.923   3.631 -0.7402 -1.2642  1.7423
  134POPC  H14Y17949   2.609   7.879   3.609  0.6903  0.4585 -2.4709
  134POPC  C31517950   2.468   7.720   3.618 -0.6704  0.2098 -0.2192
  134POPC  H15X17951   2.536   7.642   3.576 -2.2173 -1.0349 -0.4825
  134POPC  H15Y17952   2.366   7.685   3.592 -0.3308  0.5685 -2.0538
  134POPC  C31617953   2.481   7.695   3.768 -0.2519  0.1135 -0.2722
  134POPC  H16X17954   2.398   7.733   3.831 -1.4066 -0.7924 -1.2319
  134POPC  H16Y17955   2.571   7.747   3.809 -2.0040  2.1860  1.0396
  134POPC  H16Z17956   2.502   7.588   3.792 -0.3248  0.2157  0.2589
  135POPC     N17957   1.947   0.721   1.808  0.6134 -0.0492  0.2613
  135POPC   C1217958   1.957   0.571   1.797  0.1730 -0.0928  0.4463
  135POPC  H12A17962   1.952   0.526   1.699  1.7558  0.9421 -0.1159
  135POPC  H12B17963   1.868   0.536   1.848  0.0380  1.4891  1.3494
  135POPC   C1317959   1.920   0.766   1.950  0.5756 -0.0216  0.2454
  135POPC  H13A17964   1.910   0.874   1.955 -0.1146 -0.0037 -1.2844
  135POPC  H13B17965   1.827   0.719   1.979 -0.5084  0.7512 -1.8585
  135POPC  H13C17966   1.993   0.719   2.014 -0.8679 -3.8442 -0.7937
  135POPC   C1417960   2.074   0.787   1.762 -0.2940  0.9130 -0.8825
  135POPC  H14A17967   2.057   0.892   1.739  0.2456  0.8089 -1.8209
  135POPC  H14B17968   2.150   0.757   1.833 -1.5182 -2.9111 -1.1049
  135POPC  H14C17969   2.089   0.744   1.664 -2.3648 -0.0603 -0.7869
  135POPC   C1517961   1.840   0.774   1.715  0.8466 -0.0011  0.0216
  135POPC  H15A17970   1.850   0.881   1.717  0.8809 -0.0144  0.9822
  135POPC  H15B17971   1.743   0.745   1.753 -0.6542  4.2265 -0.3700
  135POPC  H15C17972   1.866   0.733   1.618  0.0713 -0.7988  0.1426
  135POPC   C1117973   2.071   0.505   1.874 -0.0582 -0.4873  0.4505
  135POPC  H11A17974   2.172   0.542   1.847 -1.0502  1.7558 -0.3061
  135POPC  H11B17975   2.066   0.398   1.843  3.1204 -0.4429 -0.3532
  135POPC     P17976   2.160   0.445   2.097 -0.2895 -0.2928 -0.0521
  135POPC   O1317977   2.277   0.530   2.129 -0.0971 -0.6297  0.1325
  135POPC   O1417978   2.196   0.326   2.017  0.7539 -0.0893  0.1163
  135POPC   O1217979   2.058   0.535   2.013 -0.5026 -0.1679  0.3389
  135POPC   O1117980   2.079   0.410   2.230 -0.3390 -0.3969 -0.1092
  135POPC    C117981   2.044   0.516   2.319 -0.3241 -0.6087  0.1499
  135POPC    HA17982   1.941   0.501   2.359 -0.2775 -2.7344 -0.4894
  135POPC    HB17983   2.060   0.615   2.271 -1.3984 -0.6729 -0.3739
  135POPC    C217984   2.129   0.517   2.447 -0.0206 -0.0069 -0.0592
  135POPC    HS17985   2.214   0.587   2.428  0.5848 -0.6363  0.3205
  135POPC   O2117986   2.178   0.391   2.493  0.2911  0.2715  0.3778
  135POPC   C2117987   2.290   0.358   2.429 -0.1599 -0.1667 -0.1887
  135POPC   O2217988   2.359   0.435   2.363  0.3396 -0.4838 -0.0359
  135POPC   C2217989   2.328   0.212   2.447  0.0667 -0.0175  0.5302
  135POPC   H2R17990   2.234   0.153   2.453 -0.8739  1.4478  0.4404
  135POPC   H2S17991   2.375   0.195   2.547 -1.0725 -0.7686  0.9410
  135POPC    C317992   2.037   0.574   2.556  0.1440 -0.0044  0.0794
  135POPC    HX17993   1.943   0.515   2.566  1.4634 -2.3586 -1.0028
  135POPC    HY17994   2.001   0.670   2.512 -2.7359 -0.0041  2.2824
  135POPC   O3117995   2.101   0.604   2.680 -0.4271 -0.0915  0.3959
  135POPC   C3117996   2.085   0.507   2.770  0.0811 -0.3630  0.1908
  135POPC   O3217997   2.030   0.402   2.743  0.5176 -0.5170 -0.1100
  135POPC   C3217998   2.162   0.540   2.898  0.6554 -0.4940 -0.1163
  135POPC   H2X17999   2.239   0.617   2.878 -0.1111  1.5302  4.1258
  135POPC   H2Y18000   2.215   0.448   2.930  0.1615 -1.2778 -1.4693
  135POPC   C2318001   2.431   0.178   2.340  0.2212 -0.0259  0.6808
  135POPC   H3R18002   2.400   0.228   2.246  1.5014  0.5493  0.5528
  135POPC   H3S18003   2.423   0.068   2.329 -0.9622  0.1602 -0.4122
  135POPC   C2418004   2.575   0.216   2.376  0.3440  0.0306  0.1358
  135POPC   H4R18005   2.574   0.310   2.436 -1.2267  0.6009 -0.7560
  135POPC   H4S18006   2.640   0.232   2.287  0.0617 -0.5270 -0.1714
  135POPC   C2518007   2.642   0.119   2.473 -0.0541 -0.1516  0.2282
  135POPC   H5R18008   2.624   0.015   2.435  0.4614 -0.4545  0.8060
  135POPC   H5S18009   2.589   0.108   2.570 -1.9743 -1.6240 -0.9426
  135POPC   C2618010   2.790   0.139   2.504 -0.0906 -0.1812  0.4196
  135POPC   H6R18011   2.849   0.161   2.412 -0.7697  1.6020  0.3907
  135POPC   H6S18012   2.827   0.044   2.549  0.4459 -0.1789 -0.0103
  135POPC   C2718013   2.805   0.251   2.608 -0.1954 -0.4090  0.6815
  135POPC   H7R18014   2.756   0.210   2.699  1.8789 -3.4773  0.4656
  135POPC   H7S18015   2.757   0.348   2.581 -0.9571 -0.4117  2.0255
  135POPC   C2818016   2.952   0.269   2.644 -0.0800 -0.2633  0.1454
  135POPC   H8R18017   3.004   0.297   2.549 -0.1626  2.6843  0.9103
  135POPC   H8S18018   2.987   0.167   2.672 -0.8219 -0.6038 -0.1624
  135POPC   C2918019   2.988   0.366   2.754 -0.4258  0.1275 -0.0826
  135POPC   H9118020   2.941   0.464   2.745  2.4123  1.4727 -0.8641
  135POPC  C21018021   3.048   0.336   2.870 -0.9628 -0.1599  0.1212
  135POPC  H10118022   3.052   0.426   2.933  0.3385 -0.9361  1.1623
  135POPC  C21118023   3.107   0.210   2.925  0.0572  0.0310 -0.5296
  135POPC  H11R18024   3.217   0.222   2.916  0.0274  0.9331  0.3448
  135POPC  H11S18025   3.080   0.116   2.871 -1.4076 -0.6998  1.3891
  135POPC  C21218026   3.055   0.183   3.066  0.6736  0.3849 -0.2334
  135POPC  H12R18027   3.094   0.081   3.085 -0.7058 -0.3421 -1.2586
  135POPC  H12S18028   2.944   0.176   3.066  0.5707  1.5930  1.6917
  135POPC  C21318029   3.104   0.279   3.175 -0.1510  0.3227  0.1991
  135POPC  H13R18030   3.135   0.372   3.123  0.6321  0.0331  0.1387
  135POPC  H13S18031   3.200   0.246   3.220  0.2629  2.6221  1.0502
  135POPC  C21418032   2.994   0.308   3.278 -0.4008  0.2676 -0.0540
  135POPC  H14R18033   2.896   0.337   3.234 -1.0179  1.5716  2.1492
  135POPC  H14S18034   3.021   0.405   3.324  0.2821  0.0017  0.1097
  135POPC  C21518035   2.972   0.197   3.381 -0.1681  0.4785  0.2213
  135POPC  H15R18036   3.073   0.160   3.409 -0.9953 -2.4256 -0.4709
  135POPC  H15S18037   2.914   0.116   3.331 -3.5435  2.2054  1.1740
  135POPC  C21618038   2.909   0.237   3.514 -0.0893 -0.1720  0.4553
  135POPC  H16R18039   2.871   0.146   3.566  2.3291 -0.4123  1.8622
  135POPC  H16S18040   2.815   0.292   3.493 -1.4618 -2.3232  0.8271
  135POPC  C21718041   3.000   0.310   3.613 -0.0284 -0.0487  0.3085
  135POPC  H17R18042   3.031   0.413   3.585  2.2367 -0.6639  0.4213
  135POPC  H17S18043   3.093   0.251   3.627  0.9279  0.9267 -1.8458
  135POPC  C21818044   2.928   0.318   3.748  0.0356  0.0913  0.3348
  135POPC  H18R18045   2.987   0.377   3.821 -0.6183  0.6876  0.3847
  135POPC  H18S18046   2.908   0.213   3.779 -1.2568 -0.6690 -2.8504
  135POPC  H18T18047   2.823   0.355   3.743 -0.3434 -1.0875 -1.0282
  135POPC   C3318048   2.064   0.598   3.000  0.4412 -0.5109 -0.3112
  135POPC   H3X18049   1.996   0.516   3.031 -1.5403  0.9045 -0.7628
  135POPC   H3Y18050   2.011   0.687   2.960 -2.2935 -1.8651  0.2155
  135POPC   C3418051   2.136   0.632   3.131  0.4369 -0.2448 -0.3764
  135POPC   H4X18052   2.194   0.724   3.111 -1.1903  1.0135  0.4911
  135POPC   H4Y18053   2.207   0.553   3.163 -1.1748 -0.9552  1.5546
  135POPC   C3518054   2.041   0.675   3.243  0.5341 -0.0882 -0.3549
  135POPC   H5X18055   1.984   0.584   3.273 -1.1942  0.2797 -2.3851
  135POPC   H5Y18056   1.974   0.750   3.196  1.7193  1.9976  1.2064
  135POPC   C3618057   2.118   0.739   3.359  0.7982  0.1591 -0.6665
  135POPC   H6X18058   2.179   0.824   3.322  1.9831  0.0247  0.9593
  135POPC   H6Y18059   2.195   0.664   3.388 -0.0621 -1.0054 -1.3241
  135POPC   C3718060   2.033   0.779   3.479  0.4272 -0.0558 -0.8554
  135POPC   H7X18061   1.964   0.704   3.522 -2.0775  0.9854 -2.9360
  135POPC   H7Y18062   1.964   0.855   3.438 -1.2538 -0.4713  1.1018
  135POPC   C3818063   2.114   0.854   3.585 -0.6884  0.0342 -0.0528
  135POPC   H8X18064   2.048   0.923   3.642 -0.2778  0.9702 -0.7008
  135POPC   H8Y18065   2.189   0.916   3.531  0.2226 -2.4346 -1.7090
  135POPC   C3918066   2.202   0.767   3.676 -0.4523  0.2070 -0.1150
  135POPC   H9X18067   2.269   0.717   3.603 -0.0284  1.4805 -0.6217
  135POPC   H9Y18068   2.145   0.687   3.728  0.2041  1.7663  3.1270
  135POPC  C31018069   2.284   0.849   3.776 -0.1745 -0.1768 -0.0261
  135POPC  H10X18070   2.341   0.921   3.713 -3.4292  0.8046 -2.0156
  135POPC  H10Y18071   2.354   0.776   3.822 -0.2846 -0.2886 -0.0346
  135POPC  C31118072   2.192   0.910   3.882  0.1784 -0.1662  0.2756
  135POPC  H11X18073   2.130   0.824   3.916  1.9639 -1.7936 -0.4725
  135POPC  H11Y18074   2.133   0.988   3.829  0.9801  1.9803  2.4578
  135POPC  C31218075   2.264   0.966   4.004 -0.0853 -0.1188  0.4115
  135POPC  H12X18076   2.189   1.018   4.068 -1.1795 -1.0510 -0.1020
  135POPC  H12Y18077   2.341   1.036   3.965  0.5131 -0.4598  0.9775
  135POPC  C31318078   2.323   0.865   4.102  0.1824 -0.2929  0.0744
  135POPC  H13X18079   2.387   0.802   4.036  0.7676  0.3166  0.0602
  135POPC  H13Y18080   2.237   0.808   4.145 -1.2159  0.9500 -1.0221
  135POPC  C31418081   2.397   0.928   4.220 -0.3662 -0.1964  0.3698
  135POPC  H14X18082   2.335   0.998   4.280 -1.2558  0.7881 -1.6558
  135POPC  H14Y18083   2.477   0.984   4.167  0.0904 -0.3073  0.9371
  135POPC  C31518084   2.454   0.830   4.323 -0.3155 -0.4825  0.0716
  135POPC  H15X18085   2.518   0.751   4.279 -1.1468 -0.9946 -0.2400
  135POPC  H15Y18086   2.365   0.773   4.359 -0.6057  0.6451  1.1674
  135POPC  C31618087   2.523   0.902   4.439 -0.5068 -0.4718  0.1800
  135POPC  H16X18088   2.600   0.972   4.399 -1.5110  0.0135 -0.9257
  135POPC  H16Y18089   2.561   0.823   4.507 -0.1392 -0.9907 -0.6151
  135POPC  H16Z18090   2.443   0.957   4.491 -1.8444 -1.9791 -0.2363
  136POPC     N18091   7.082   3.366   2.617 -0.0523  0.1256 -0.3272
  136POPC   C1218092   6.934   3.338   2.624 -0.2166  1.0514  0.0530
  136POPC  H12A18096   6.923   3.251   2.561  1.7646  1.6083 -1.1111
  136POPC  H12B18097   6.878   3.419   2.580  1.6901  1.2992 -2.0212
  136POPC   C1318093   7.141   3.323   2.485  1.2178  0.3524  0.1639
  136POPC  H13A18098   7.090   3.381   2.410  0.0186  0.7714  1.2757
  136POPC  H13B18099   7.249   3.334   2.489  1.2160  0.1725  0.9157
  136POPC  H13C18100   7.124   3.217   2.475 -3.0165  0.9257  0.5447
  136POPC   C1418094   7.089   3.516   2.633 -0.4618  0.0899  0.2056
  136POPC  H14A18101   7.192   3.548   2.640 -0.3981  0.1941 -1.1975
  136POPC  H14B18102   7.042   3.565   2.549 -1.1188 -0.0242  0.4997
  136POPC  H14C18103   7.047   3.563   2.721 -0.2955  0.0682  0.2972
  136POPC   C1518095   7.170   3.298   2.720 -0.5505 -0.3596 -0.2230
  136POPC  H15A18104   7.270   3.334   2.707 -1.0956  1.6481  1.0538
  136POPC  H15B18105   7.166   3.193   2.695 -3.3756 -0.5867  0.9128
  136POPC  H15C18106   7.128   3.316   2.818 -2.2520  1.7366 -1.3023
  136POPC   C1118107   6.870   3.301   2.758  0.0340  0.1509 -0.0676
  136POPC  H11A18108   6.908   3.205   2.797 -0.2829  0.0276 -0.0624
  136POPC  H11B18109   6.760   3.294   2.742  0.0584 -2.4766  0.7437
  136POPC     P18110   6.818   3.539   2.878  0.1482 -0.0951  0.1126
  136POPC   O1318111   6.675   3.510   2.851  0.0124  0.1107  0.5958
  136POPC   O1418112   6.868   3.653   2.798 -0.5616  0.1757  0.0497
  136POPC   O1218113   6.899   3.404   2.853  0.2425 -0.0281  0.0595
  136POPC   O1118114   6.846   3.579   3.031  0.3088  0.2574 -0.0080
  136POPC    C118115   6.764   3.678   3.095 -0.3587 -0.4006  0.1674
  136POPC    HA18116   6.794   3.686   3.201 -2.2797  2.7222  0.5249
  136POPC    HB18117   6.662   3.634   3.101  0.0074 -1.2262  0.4538
  136POPC    C218118   6.741   3.813   3.025  0.1589 -0.3785  0.0394
  136POPC    HS18119   6.681   3.793   2.934 -0.2651 -2.2347  0.6974
  136POPC   O2118120   6.867   3.870   2.987  0.0741 -0.3961 -0.2651
  136POPC   C2118121   6.857   3.976   2.906  0.3413 -0.2079 -0.0522
  136POPC   O2218122   6.761   3.997   2.833 -0.2100  0.0416  0.7505
  136POPC   C2218123   6.994   4.042   2.913  0.3604 -0.1740 -0.6660
  136POPC   H2R18124   7.020   4.092   2.817  1.3582 -0.3739 -0.5091
  136POPC   H2S18125   7.067   3.964   2.942  0.7474  1.0454  1.7537
  136POPC    C318126   6.658   3.911   3.109  0.3012  0.2203 -0.5178
  136POPC    HX18127   6.576   3.844   3.142  2.5399 -1.8740  0.9682
  136POPC    HY18128   6.614   3.998   3.055 -1.0641  0.5840  1.1713
  136POPC   O3118129   6.727   3.938   3.231 -0.0898 -0.4395 -0.1478
  136POPC   C3118130   6.712   4.064   3.273  0.8116 -0.2294 -0.4404
  136POPC   O3218131   6.666   4.157   3.210  0.7804  0.0114 -0.0659
  136POPC   C3218132   6.771   4.065   3.414  0.1069 -0.0450 -0.1461
  136POPC   H2X18133   6.808   3.969   3.456 -0.5685 -1.2339 -2.2224
  136POPC   H2Y18134   6.684   4.102   3.472  0.1808 -0.0305 -0.0447
  136POPC   C2318135   6.988   4.160   3.011  0.3400 -0.5871 -0.1707
  136POPC   H3R18136   7.095   4.180   3.033  0.0980 -1.4860  2.0557
  136POPC   H3S18137   6.947   4.144   3.113  3.1210 -1.5526  0.8433
  136POPC   C2418138   6.923   4.286   2.955  1.3194  0.0239  0.0510
  136POPC   H4R18139   6.813   4.283   2.968  1.1776 -3.7204 -1.3757
  136POPC   H4S18140   6.942   4.295   2.846  0.4703  2.9177  0.1013
  136POPC   C2518141   6.977   4.424   2.993  0.4949  0.2729  0.3308
  136POPC   H5R18142   7.088   4.425   2.990  0.5395  1.9411  1.5058
  136POPC   H5S18143   6.946   4.445   3.098  0.1625 -0.0480  0.2956
  136POPC   C2618144   6.930   4.537   2.902 -0.0872  0.1152  0.4312
  136POPC   H6R18145   6.820   4.546   2.912 -0.0427  1.7122 -0.3960
  136POPC   H6S18146   6.950   4.514   2.795  0.4089 -0.9135  0.7352
  136POPC   C2718147   6.991   4.671   2.947  0.5597 -0.0933  0.1897
  136POPC   H7R18148   6.935   4.758   2.906 -0.4447  0.7788  3.3228
  136POPC   H7S18149   7.100   4.668   2.927  0.9142 -1.9247  2.1966
  136POPC   C2818150   6.969   4.709   3.093 -0.0044 -0.2109  0.1402
  136POPC   H8R18151   7.036   4.650   3.159 -0.7909 -0.0069  1.1285
  136POPC   H8S18152   6.869   4.684   3.133 -1.7096  4.0612 -1.1130
  136POPC   C2918153   6.985   4.857   3.116 -0.2826 -0.1845  0.1511
  136POPC   H9118154   7.062   4.897   3.048 -0.5801 -2.3221 -1.5067
  136POPC  C21018155   6.907   4.948   3.176 -0.1805 -0.0547  0.0893
  136POPC  H10118156   6.934   5.051   3.151 -0.9996  0.1922  0.2043
  136POPC  C21118157   6.795   4.908   3.268 -0.1441  0.2980  0.2874
  136POPC  H11R18158   6.729   4.835   3.216 -0.6023 -0.2081  1.5669
  136POPC  H11S18159   6.728   4.994   3.291 -2.3987 -1.2338 -0.3351
  136POPC  C21218160   6.854   4.844   3.393  0.0188  0.5572  0.3437
  136POPC  H12R18161   6.917   4.922   3.441  1.1070  0.0190 -0.1973
  136POPC  H12S18162   6.923   4.760   3.367 -0.4799  0.0712  0.5688
  136POPC  C21318163   6.757   4.794   3.501  0.3261 -0.2238  0.2643
  136POPC  H13R18164   6.811   4.749   3.587  1.4298 -0.6104 -0.6128
  136POPC  H13S18165   6.704   4.703   3.465  0.3480 -0.7736  1.5932
  136POPC  C21418166   6.654   4.898   3.545  0.0195 -0.4593  0.1028
  136POPC  H14R18167   6.568   4.891   3.475 -1.6856  0.4645  2.0768
  136POPC  H14S18168   6.708   4.995   3.543 -2.2194  0.8350  0.4026
  136POPC  C21518169   6.608   4.883   3.690  0.1300  0.3024  0.2177
  136POPC  H15R18170   6.703   4.902   3.744  1.5570 -1.5246 -1.5749
  136POPC  H15S18171   6.580   4.779   3.716  2.8973 -0.6076 -0.3064
  136POPC  C21618172   6.493   4.977   3.726  0.0341  0.1152  0.3997
  136POPC  H16R18173   6.455   4.955   3.829  1.8890  0.2262  1.1204
  136POPC  H16S18174   6.420   4.951   3.646  0.7848 -2.2023  0.4515
  136POPC  C21718175   6.525   5.126   3.715 -0.0079  0.0617 -0.4202
  136POPC  H17R18176   6.530   5.156   3.608  0.5381 -1.5584 -0.8533
  136POPC  H17S18177   6.621   5.143   3.769  1.0904 -1.2135 -1.9213
  136POPC  C21818178   6.425   5.222   3.779  0.1523 -0.1079  0.0866
  136POPC  H18R18179   6.456   5.323   3.743  1.4232  0.1287  1.7951
  136POPC  H18S18180   6.321   5.191   3.754 -0.4140  1.3007  0.6012
  136POPC  H18T18181   6.438   5.227   3.889 -1.9214 -0.3481  0.3623
  136POPC   C3318182   6.883   4.170   3.414 -0.5737  0.6851 -0.3774
  136POPC   H3X18183   6.861   4.255   3.346 -1.4715  0.7803  0.0088
  136POPC   H3Y18184   6.979   4.124   3.382 -0.6567  0.5904 -0.4892
  136POPC   C3418185   6.910   4.236   3.549 -0.4782  0.2150 -0.1671
  136POPC   H4X18186   6.973   4.166   3.609 -1.1383 -0.4011 -0.1791
  136POPC   H4Y18187   6.814   4.254   3.602 -0.3956  0.1628  0.0038
  136POPC   C3518188   6.976   4.373   3.544 -0.3743  0.1740  0.0178
  136POPC   H5X18189   6.901   4.430   3.486  1.9980  1.6403 -1.7336
  136POPC   H5Y18190   7.075   4.368   3.492  0.0450  0.2441  0.7969
  136POPC   C3618191   6.987   4.442   3.680  0.1844  0.0230  0.0516
  136POPC   H6X18192   7.019   4.546   3.659 -0.4240  0.2822  0.3950
  136POPC   H6Y18193   7.061   4.390   3.745  0.3834  1.2561  0.8242
  136POPC   C3718194   6.855   4.469   3.753  0.3046  0.7532  0.0079
  136POPC   H7X18195   6.818   4.367   3.780 -0.0765 -0.2449 -3.8717
  136POPC   H7Y18196   6.787   4.519   3.681 -1.5672 -0.3401  0.9904
  136POPC   C3818197   6.884   4.556   3.875 -0.1213  0.7071  0.1426
  136POPC   H8X18198   6.928   4.651   3.838 -2.4108  1.2925 -1.1982
  136POPC   H8Y18199   6.963   4.515   3.942  1.1842  2.3081 -0.3876
  136POPC   C3918200   6.752   4.585   3.947 -0.2270 -0.9252  0.6397
  136POPC   H9X18201   6.735   4.500   4.017  0.6434 -0.6790  1.1692
  136POPC   H9Y18202   6.671   4.590   3.871  0.0369  2.3900  0.5117
  136POPC  C31018203   6.757   4.717   4.025 -0.1011 -0.2016 -0.5752
  136POPC  H10X18204   6.815   4.793   3.970  1.3144 -0.8763 -0.0580
  136POPC  H10Y18205   6.815   4.692   4.117  2.0561  0.5937 -1.6973
  136POPC  C31118206   6.619   4.778   4.050  0.0014  0.0167 -0.5431
  136POPC  H11X18207   6.548   4.701   4.085 -0.3936  1.6864  2.5089
  136POPC  H11Y18208   6.577   4.815   3.954  0.0873  0.6970 -0.3211
  136POPC  C31218209   6.614   4.903   4.138  0.3574 -0.0849 -0.3763
  136POPC  H12X18210   6.662   4.890   4.237 -1.7350  1.7220  0.9427
  136POPC  H12Y18211   6.507   4.928   4.159  0.3051 -1.0845  0.5573
  136POPC  C31318212   6.672   5.033   4.082 -0.4115  0.2932 -0.3046
  136POPC  H13X18213   6.650   5.055   3.976 -0.0078 -1.1360 -0.6897
  136POPC  H13Y18214   6.781   5.013   4.084 -0.3991  0.4046  0.8200
  136POPC  C31418215   6.639   5.160   4.161 -0.1296 -0.1501  0.5292
  136POPC  H14X18216   6.647   5.138   4.270  0.9790  0.7335  0.6324
  136POPC  H14Y18217   6.534   5.191   4.141 -0.0248  1.5839  2.4627
  136POPC  C31518218   6.730   5.275   4.118 -0.1679 -0.6235 -0.8264
  136POPC  H15X18219   6.837   5.254   4.140 -0.4255  0.9875  2.1806
  136POPC  H15Y18220   6.693   5.360   4.179  0.8553 -1.5786  1.1874
  136POPC  C31618221   6.702   5.334   3.980  0.0236  0.5265 -0.3787
  136POPC  H16X18222   6.786   5.399   3.948  0.0684 -0.4202 -2.2418
  136POPC  H16Y18223   6.606   5.391   3.987 -0.7759 -0.7386 -0.8513
  136POPC  H16Z18224   6.695   5.247   3.912 -2.2530  1.2695 -1.1632
  137POPC     N18225   0.722   3.381   2.449 -0.2369 -0.1365  0.0390
  137POPC   C1218226   0.746   3.346   2.595 -0.4741 -0.1457  0.0761
  137POPC  H12A18230   0.656   3.372   2.648 -0.1072  0.2654  0.5008
  137POPC  H12B18231   0.816   3.417   2.637 -0.7980  0.4621 -0.4049
  137POPC   C1318227   0.653   3.514   2.439 -0.3147 -0.2271 -0.6118
  137POPC  H13A18232   0.727   3.588   2.464 -0.2503 -0.2921 -0.6108
  137POPC  H13B18233   0.622   3.541   2.339 -3.2393 -1.9138 -0.2297
  137POPC  H13C18234   0.571   3.518   2.509  3.2218 -1.0101  3.7599
  137POPC   C1418228   0.855   3.383   2.377 -0.5326  0.5613 -0.4795
  137POPC  H14A18235   0.828   3.371   2.273 -1.4441  2.5280 -0.5005
  137POPC  H14B18236   0.921   3.467   2.395  0.1099 -0.0155 -0.1393
  137POPC  H14C18237   0.912   3.300   2.414 -1.5054 -0.5809 -1.4863
  137POPC   C1518229   0.632   3.280   2.383  0.1508 -0.6605  0.3000
  137POPC  H15A18238   0.608   3.298   2.279  1.8551 -0.4764 -0.0665
  137POPC  H15B18239   0.541   3.285   2.442 -1.4942 -0.1592 -2.2056
  137POPC  H15C18240   0.677   3.182   2.393 -0.6082 -0.8927  1.5422
  137POPC   C1118241   0.788   3.202   2.624 -0.0841 -0.0882 -0.1935
  137POPC  H11A18242   0.694   3.148   2.600  0.0774 -1.0751  1.3091
  137POPC  H11B18243   0.808   3.185   2.732 -0.9063 -3.5487 -0.5251
  137POPC     P18244   0.904   2.993   2.547  0.1794 -0.4178 -0.0769
  137POPC   O1318245   1.033   2.953   2.488  0.3545  0.0131  0.0152
  137POPC   O1418246   0.787   2.926   2.487 -0.3194  0.1834  0.2184
  137POPC   O1218247   0.888   3.152   2.535  0.4148 -0.3480  0.5106
  137POPC   O1118248   0.890   2.961   2.704 -0.3178  0.1457 -0.0030
  137POPC    C118249   1.011   2.987   2.775 -0.3551  0.1008  0.0758
  137POPC    HA18250   0.997   3.084   2.827 -0.3052  1.2199 -1.9867
  137POPC    HB18251   1.099   2.996   2.708 -0.4360 -0.3827 -0.1014
  137POPC    C218252   1.039   2.877   2.880 -0.1889  0.6502  0.6095
  137POPC    HS18253   1.039   2.782   2.822 -1.3736  1.3851 -0.6314
  137POPC   O2118254   0.929   2.882   2.971 -0.2827  0.5817  0.4994
  137POPC   C2118255   0.913   2.765   3.033  0.4216  0.1690 -0.0934
  137POPC   O2218256   0.973   2.661   3.008 -0.3751 -0.2361 -0.3304
  137POPC   C2218257   0.790   2.772   3.121  0.8300 -0.3564  0.5268
  137POPC   H2R18258   0.704   2.787   3.052  1.6792 -1.0566 -0.7067
  137POPC   H2S18259   0.798   2.860   3.189 -2.0186 -1.4559  2.4037
  137POPC    C318260   1.172   2.887   2.956  0.1385 -0.7461  0.2414
  137POPC    HX18261   1.253   2.916   2.885 -1.6340  0.1727 -1.4379
  137POPC    HY18262   1.198   2.788   2.998  0.7504 -0.5979  0.2278
  137POPC   O3118263   1.172   2.972   3.071 -0.4389 -0.0103 -0.2963
  137POPC   C3118264   1.194   3.103   3.053 -0.1197 -0.0670 -0.3311
  137POPC   O3218265   1.217   3.158   2.947  0.5559  0.5723  0.1435
  137POPC   C3218266   1.177   3.179   3.184  0.4112  0.4641 -0.5710
  137POPC   H2X18267   1.277   3.198   3.228  0.9105 -2.0913 -0.5431
  137POPC   H2Y18268   1.118   3.116   3.253 -2.7924  1.4215 -2.3143
  137POPC   C2318269   0.787   2.648   3.210 -0.1135 -0.7154  0.0058
  137POPC   H3R18270   0.878   2.623   3.268  0.1845 -1.4757 -0.7754
  137POPC   H3S18271   0.761   2.560   3.147  1.1585 -0.6709 -0.5925
  137POPC   C2418272   0.676   2.663   3.315 -0.2819 -0.8662 -0.1515
  137POPC   H4R18273   0.577   2.679   3.268 -0.4414 -0.7526  0.2222
  137POPC   H4S18274   0.688   2.736   3.397  0.8578 -0.0228 -1.0464
  137POPC   C2518275   0.668   2.526   3.384 -0.0039 -0.6718  0.2689
  137POPC   H5R18276   0.754   2.505   3.451 -1.7172 -0.4914  2.5701
  137POPC   H5S18277   0.675   2.453   3.300  3.4882  1.1005 -1.1090
  137POPC   C2618278   0.536   2.507   3.459 -0.2033 -0.2441  0.0320
  137POPC   H6R18279   0.521   2.401   3.488 -1.8242  0.3425  1.3975
  137POPC   H6S18280   0.454   2.535   3.390 -0.9832  1.4997  1.6216
  137POPC   C2718281   0.523   2.578   3.594  0.4732 -0.1941  0.0713
  137POPC   H7R18282   0.508   2.687   3.578 -0.4899 -0.2484  0.5937
  137POPC   H7S18283   0.622   2.559   3.641 -0.0490 -0.2448  1.1552
  137POPC   C2818284   0.407   2.515   3.670 -0.0652  0.7499  0.0378
  137POPC   H8R18285   0.448   2.416   3.698 -0.1237  0.3484 -1.2554
  137POPC   H8S18286   0.310   2.494   3.619  1.2095 -3.0683 -0.9757
  137POPC   C2918287   0.370   2.580   3.800 -0.8151 -0.0406  0.2227
  137POPC   H9118288   0.408   2.527   3.888  1.0972 -0.5484 -0.8895
  137POPC  C21018289   0.286   2.684   3.813 -0.0605  0.5775  0.1797
  137POPC  H10118290   0.272   2.719   3.916  1.7948 -1.6295  1.2473
  137POPC  C21118291   0.223   2.757   3.698  0.3199  0.7180  0.0604
  137POPC  H11R18292   0.285   2.743   3.607  2.2075  2.1715  1.0830
  137POPC  H11S18293   0.231   2.866   3.720 -1.3653  0.5056  1.8227
  137POPC  C21218294   0.076   2.724   3.673  0.3219  0.7313  0.0314
  137POPC  H12R18295   7.962   2.752   3.749  0.8440 -0.8087  1.1460
  137POPC  H12S18296   0.068   2.613   3.669  0.1211  0.7033  1.1133
  137POPC  C21318297   0.024   2.764   3.535  0.2034  0.0630 -0.1207
  137POPC  H13R18298   0.074   2.716   3.448  1.6458  0.7650  0.3103
  137POPC  H13S18299   0.028   2.875   3.541 -1.5782  0.0526  1.7896
  137POPC  C21418300   7.840   2.724   3.508  0.0554  0.4637 -0.1383
  137POPC  H14R18301   7.787   2.743   3.604  0.1027  0.4277 -0.1051
  137POPC  H14S18302   7.843   2.617   3.478  1.2857 -0.0157  1.5960
  137POPC  C21518303   7.773   2.804   3.397  0.1972  0.1775 -0.4299
  137POPC  H15R18304   7.675   2.758   3.372  1.6211 -3.1268 -0.2663
  137POPC  H15S18305   7.833   2.786   3.305  1.4965  0.9105  0.2670
  137POPC  C21618306   7.746   2.953   3.420 -0.3356 -0.0102  0.1957
  137POPC  H16R18307   7.695   2.991   3.329  0.6818 -0.3347 -0.5190
  137POPC  H16S18308   7.843   3.006   3.424  0.5510 -1.4204 -1.5190
  137POPC  C21718309   7.670   2.991   3.547 -0.2461  0.2257  0.1777
  137POPC  H17R18310   7.742   2.977   3.631 -0.4288 -1.1438  0.1183
  137POPC  H17S18311   7.589   2.916   3.554  0.6117 -0.5634  2.0432
  137POPC  C21818312   7.608   3.130   3.556  0.5949  0.5902  0.3707
  137POPC  H18R18313   7.597   3.154   3.664 -0.5917 -1.3947  0.7103
  137POPC  H18S18314   7.510   3.137   3.505 -0.0374  2.6965  1.8133
  137POPC  H18T18315   7.670   3.209   3.508  0.8069  0.8124  1.0140
  137POPC   C3318316   1.094   3.307   3.164 -0.2277  0.0982 -0.2796
  137POPC   H3X18317   1.007   3.286   3.098 -0.8573 -1.0354  0.8871
  137POPC   H3Y18318   1.170   3.378   3.124  1.1673 -0.9419  0.4489
  137POPC   C3418319   1.054   3.379   3.293  0.0433  0.3129 -0.3158
  137POPC   H4X18320   1.150   3.409   3.340 -1.2653  2.7158  0.9100
  137POPC   H4Y18321   0.992   3.303   3.345 -0.3433  1.9902  1.7280
  137POPC   C3518322   0.980   3.508   3.258 -0.1889  0.3720  0.3930
  137POPC   H5X18323   0.913   3.489   3.171 -0.0224 -0.8937  0.5460
  137POPC   H5Y18324   1.054   3.581   3.217  0.4930  0.1982  1.2951
  137POPC   C3618325   0.906   3.563   3.380 -0.2254  0.6708  0.2376
  137POPC   H6X18326   0.972   3.602   3.461  0.5105  2.1741 -1.0613
  137POPC   H6Y18327   0.845   3.479   3.420  2.3689 -0.2171  2.5397
  137POPC   C3718328   0.816   3.679   3.337 -0.5567  0.3358  0.0312
  137POPC   H7X18329   0.738   3.637   3.270 -0.7578 -0.3423  0.6862
  137POPC   H7Y18330   0.880   3.745   3.275 -1.2858  2.9437  1.9518
  137POPC   C3818331   0.763   3.764   3.452 -0.0520  0.3576  0.2473
  137POPC   H8X18332   0.684   3.831   3.411  0.2842 -0.3751 -1.6198
  137POPC   H8Y18333   0.847   3.823   3.496 -1.5304  1.4363  1.6799
  137POPC   C3918334   0.704   3.670   3.558 -0.0748  0.1651  0.0631
  137POPC   H9X18335   0.774   3.595   3.600  0.1065 -0.1726 -0.8332
  137POPC   H9Y18336   0.626   3.606   3.513  0.8568 -1.7161  1.0842
  137POPC  C31018337   0.659   3.750   3.680  0.1596  0.0390  0.2322
  137POPC  H10X18338   0.583   3.828   3.658  0.5818  0.7330  1.1951
  137POPC  H10Y18339   0.755   3.798   3.709  1.9481 -1.4084 -3.0867
  137POPC  C31118340   0.619   3.661   3.798 -0.0528  0.2863  0.3479
  137POPC  H11X18341   0.704   3.594   3.825 -0.4987 -0.1482  0.6767
  137POPC  H11Y18342   0.535   3.597   3.762  1.6297 -0.0721 -3.1334
  137POPC  C31218343   0.567   3.736   3.920  0.0424  0.2544  0.4080
  137POPC  H12X18344   0.489   3.805   3.883  0.7595  0.2949 -1.0660
  137POPC  H12Y18345   0.656   3.786   3.964  1.0079  0.2192 -1.4667
  137POPC  C31318346   0.490   3.656   4.026 -0.0368 -0.6297 -0.3151
  137POPC  H13X18347   0.479   3.717   4.118  2.1588  0.6007 -0.8228
  137POPC  H13Y18348   0.558   3.574   4.058  1.6582  0.3952 -1.1898
  137POPC  C31418349   0.359   3.589   3.985 -0.4259  0.0705 -0.2319
  137POPC  H14X18350   0.378   3.494   3.931 -2.8610 -0.9221  0.6064
  137POPC  H14Y18351   0.304   3.666   3.928  0.0826  0.2877 -0.4318
  137POPC  C31518352   0.282   3.550   4.111 -0.1710 -0.0474 -0.1107
  137POPC  H15X18353   0.269   3.644   4.170  1.0902  1.4464 -2.1552
  137POPC  H15Y18354   0.340   3.476   4.170 -2.1455 -0.8623  0.8673
  137POPC  C31618355   0.139   3.501   4.086 -0.2727  0.2209 -0.0600
  137POPC  H16X18356   0.085   3.480   4.180  0.4786 -1.2154  0.0629
  137POPC  H16Y18357   0.148   3.410   4.023  1.1235  0.1629  0.2160
  137POPC  H16Z18358   0.072   3.571   4.031  1.5494  2.5560  0.6006
  138POPC     N18359   4.949   2.101   2.064 -0.1674  0.1494  0.3337
  138POPC   C1218360   4.960   2.052   2.207 -0.0649 -0.7219  0.0262
  138POPC  H12A18364   4.970   1.944   2.214 -3.2508 -1.1309 -1.1302
  138POPC  H12B18365   4.869   2.076   2.259  0.4575  3.5669 -0.8471
  138POPC   C1318361   4.874   1.993   1.990  0.4450 -0.0440 -0.0148
  138POPC  H13A18366   4.935   1.906   2.006  3.2837  1.8992  0.1855
  138POPC  H13B18367   4.779   1.982   2.041  0.2199 -0.2187 -0.4781
  138POPC  H13C18368   4.866   2.011   1.884  1.0247 -0.2093 -0.0839
  138POPC   C1418362   4.874   2.231   2.053 -0.2015  0.1035  0.0254
  138POPC  H14A18369   4.775   2.232   2.097  0.0140 -1.2247  0.5516
  138POPC  H14B18370   4.932   2.312   2.097  0.6319 -1.0180  1.0158
  138POPC  H14C18371   4.860   2.268   1.953 -1.4781 -1.7100 -0.4735
  138POPC   C1518363   5.094   2.108   2.023 -0.1430  0.5898  0.4913
  138POPC  H15A18372   5.101   2.157   1.927 -0.5735  0.1694  0.2494
  138POPC  H15B18373   5.133   2.008   2.013  0.8409  0.8189  1.8334
  138POPC  H15C18374   5.144   2.166   2.099  0.0556  0.7981  0.2042
  138POPC   C1118375   5.069   2.117   2.293 -0.1130 -0.0890 -0.3887
  138POPC  H11A18376   5.174   2.096   2.263 -0.0349  1.0189 -0.8982
  138POPC  H11B18377   5.062   2.068   2.392  0.3278  3.2348  1.3331
  138POPC     P18378   5.004   2.323   2.435  0.0593  0.2041 -0.2798
  138POPC   O1318379   4.948   2.455   2.399 -0.4174  0.0526 -0.1035
  138POPC   O1418380   5.116   2.323   2.531  0.5980 -0.0525 -0.9026
  138POPC   O1218381   5.042   2.257   2.294  0.0039 -0.0688 -0.1671
  138POPC   O1118382   4.887   2.222   2.479  0.0081  0.4192  0.0785
  138POPC    C118383   4.785   2.270   2.567 -0.3646 -0.8795  0.3576
  138POPC    HA18384   4.708   2.190   2.573 -1.5692  0.1972 -0.7070
  138POPC    HB18385   4.734   2.358   2.523  0.9694  0.5650  1.6448
  138POPC    C218386   4.830   2.290   2.713 -0.0737  0.4336  0.0934
  138POPC    HS18387   4.888   2.384   2.705  2.2088 -1.0467 -1.1716
  138POPC   O2118388   4.901   2.171   2.748 -0.4021  0.2821  0.2482
  138POPC   C2118389   5.000   2.200   2.833  0.3824  0.0865 -0.5897
  138POPC   O2218390   5.036   2.314   2.860  0.2637 -0.1128  0.4250
  138POPC   C2218391   5.038   2.064   2.890 -0.0012  0.2093 -0.0352
  138POPC   H2R18392   5.071   1.991   2.813  2.7678 -0.1745  1.4453
  138POPC   H2S18393   4.951   2.015   2.939  1.1069 -1.5224  0.2627
  138POPC    C318394   4.702   2.300   2.798 -0.0679 -0.3061  0.1899
  138POPC    HX18395   4.653   2.204   2.770  1.5928 -0.6407 -1.7291
  138POPC    HY18396   4.650   2.388   2.755  0.9879  0.4067  0.3597
  138POPC   O3118397   4.716   2.309   2.940 -0.7830  0.1097  0.2350
  138POPC   C3118398   4.725   2.434   2.987  0.2672  0.0716  0.1520
  138POPC   O3218399   4.711   2.534   2.918 -0.8584 -0.0533  0.1848
  138POPC   C3218400   4.732   2.437   3.139  1.0125 -0.2327  0.1264
  138POPC   H2X18401   4.824   2.384   3.171  1.8014  0.8856 -0.2698
  138POPC   H2Y18402   4.645   2.387   3.189  1.9906 -1.1748  0.9160
  138POPC   C2318403   5.159   2.083   2.982  0.2538  0.2656 -0.3810
  138POPC   H3R18404   5.133   2.170   3.046  1.0790  0.1902  0.0615
  138POPC   H3S18405   5.251   2.111   2.926  0.5145  0.7933  0.3039
  138POPC   C2418406   5.189   1.958   3.066 -0.0547  0.2463 -0.2952
  138POPC   H4R18407   5.208   1.868   3.005  0.3093  1.1756 -1.5797
  138POPC   H4S18408   5.101   1.926   3.124  0.7048  2.9042  2.4756
  138POPC   C2518409   5.306   1.979   3.163 -0.2138  0.9142 -0.2420
  138POPC   H5R18410   5.321   2.078   3.211  3.2786 -0.0100  0.7364
  138POPC   H5S18411   5.406   1.971   3.116  0.0575  0.4584  0.4072
  138POPC   C2618412   5.277   1.888   3.283  0.5370 -0.0223 -0.7648
  138POPC   H6R18413   5.259   1.780   3.265  0.5410  0.3460 -3.2040
  138POPC   H6S18414   5.188   1.929   3.336  0.9839 -0.3520  0.2587
  138POPC   C2718415   5.395   1.901   3.380 -0.1125 -0.0443  0.0351
  138POPC   H7R18416   5.402   1.996   3.438 -2.7245  1.0803 -1.4037
  138POPC   H7S18417   5.490   1.909   3.322  0.8311  5.0577  2.0118
  138POPC   C2818418   5.403   1.792   3.487 -0.6531 -0.3001 -0.1820
  138POPC   H8R18419   5.419   1.692   3.441  4.0758 -0.3041  1.1709
  138POPC   H8S18420   5.303   1.799   3.535 -1.4888  0.6259 -1.9848
  138POPC   C2918421   5.514   1.818   3.585 -0.6200 -0.2207 -0.2406
  138POPC   H9118422   5.520   1.926   3.608  1.8666  0.1102 -2.2290
  138POPC  C21018423   5.595   1.729   3.644 -0.4854 -0.1101 -0.2566
  138POPC  H10118424   5.663   1.758   3.725 -1.9371  0.5306  0.7559
  138POPC  C21118425   5.591   1.580   3.628  0.2212 -0.1073 -0.4714
  138POPC  H11R18426   5.693   1.541   3.646 -0.2173 -0.0650  2.2268
  138POPC  H11S18427   5.553   1.543   3.530 -0.4523  0.8981 -0.5954
  138POPC  C21218428   5.495   1.523   3.732  0.7697 -0.3227 -0.0869
  138POPC  H12R18429   5.394   1.567   3.724 -0.1634 -2.0470  1.6286
  138POPC  H12S18430   5.534   1.523   3.836 -0.9328 -0.4475  0.5703
  138POPC  C21318431   5.474   1.372   3.712 -0.5808 -0.2039  0.3965
  138POPC  H13R18432   5.441   1.321   3.805 -0.7672  1.4556  1.2599
  138POPC  H13S18433   5.577   1.339   3.688 -0.2204 -0.1968  1.9228
  138POPC  C21418434   5.376   1.321   3.606 -0.1200  0.3420 -0.2980
  138POPC  H14R18435   5.402   1.215   3.586  2.1703  0.5751  1.3296
  138POPC  H14S18436   5.374   1.377   3.510 -1.6640 -0.6545 -0.8612
  138POPC  C21518437   5.238   1.308   3.670 -0.0936  0.0188 -0.3075
  138POPC  H15R18438   5.208   1.392   3.736 -0.0714  0.9284 -1.4501
  138POPC  H15S18439   5.243   1.223   3.741 -0.9199  1.6534  1.7524
  138POPC  C21618440   5.123   1.294   3.570 -0.2882  0.4987 -0.1533
  138POPC  H16R18441   5.117   1.188   3.536  2.4056 -0.1223  1.1815
  138POPC  H16S18442   5.156   1.347   3.478 -1.0236 -2.2401 -2.0720
  138POPC  C21718443   4.993   1.342   3.635 -0.1193  0.0675  0.5066
  138POPC  H17R18444   4.996   1.449   3.663 -0.2156 -0.2360  1.6941
  138POPC  H17S18445   4.985   1.288   3.732 -1.4699 -0.7693 -0.0525
  138POPC  C21818446   4.863   1.312   3.560 -0.1033 -0.2635  0.6092
  138POPC  H18R18447   4.876   1.338   3.453 -1.9608 -1.8308 -0.0339
  138POPC  H18S18448   4.790   1.382   3.607 -1.7149 -0.0341 -2.1264
  138POPC  H18T18449   4.823   1.209   3.568 -2.0896  0.3980 -0.6318
  138POPC   C3318450   4.753   2.575   3.200  0.3238 -0.0326 -0.0795
  138POPC   H3X18451   4.660   2.634   3.211  0.7355  0.3781  1.4380
  138POPC   H3Y18452   4.813   2.632   3.126 -1.0903 -0.1740 -1.3593
  138POPC   C3418453   4.822   2.591   3.336  0.0192  0.2048  0.0485
  138POPC   H4X18454   4.831   2.700   3.353 -1.5634  0.0739  1.8651
  138POPC   H4Y18455   4.922   2.542   3.341 -1.2585 -2.4786  0.0315
  138POPC   C3518456   4.746   2.517   3.446  0.3374 -0.1669  0.0240
  138POPC   H5X18457   4.740   2.410   3.418  2.5531 -0.2324 -0.2820
  138POPC   H5Y18458   4.646   2.564   3.433  1.8698  3.1765 -0.3669
  138POPC   C3618459   4.804   2.540   3.586  0.0604 -0.1568  0.1376
  138POPC   H6X18460   4.804   2.648   3.609 -0.3372 -0.0929 -0.1554
  138POPC   H6Y18461   4.905   2.495   3.594 -0.4490 -1.0062  2.1236
  138POPC   C3718462   4.706   2.471   3.681 -0.3560 -0.5239 -0.5530
  138POPC   H7X18463   4.612   2.529   3.697  0.1915  0.0536  0.6846
  138POPC   H7Y18464   4.760   2.473   3.778 -1.7062 -0.0415  0.2089
  138POPC   C3818465   4.680   2.321   3.666  0.3793 -0.7205  0.0969
  138POPC   H8X18466   4.779   2.272   3.658 -0.4612 -2.1807 -1.7131
  138POPC   H8Y18467   4.620   2.299   3.575  0.2187 -2.4016  0.5962
  138POPC   C3918468   4.595   2.250   3.772 -0.4874  0.3115  0.1051
  138POPC   H9X18469   4.567   2.144   3.753 -0.5704  0.0624  1.5446
  138POPC   H9Y18470   4.492   2.292   3.780 -0.5381  0.1391  0.3457
  138POPC  C31018471   4.652   2.234   3.913 -0.2857 -0.1070 -0.0242
  138POPC  H10X18472   4.585   2.178   3.981  0.2440  0.0599  0.6368
  138POPC  H10Y18473   4.662   2.333   3.961  0.9484 -0.3672  0.2860
  138POPC  C31118474   4.786   2.160   3.923 -0.1720  0.1610  0.4340
  138POPC  H11X18475   4.819   2.184   4.026  1.7360 -0.5472  0.0087
  138POPC  H11Y18476   4.865   2.207   3.861 -1.3933 -1.2897 -2.2890
  138POPC  C31218477   4.787   2.008   3.907 -0.1884  0.2127 -0.0474
  138POPC  H12X18478   4.749   1.991   3.804 -0.0487 -0.7224  0.0490
  138POPC  H12Y18479   4.720   1.953   3.976  0.7189  0.3541  0.9569
  138POPC  C31318480   4.927   1.951   3.930 -0.2677  0.0515  0.0384
  138POPC  H13X18481   4.965   2.010   4.016 -2.3483 -0.2888  1.2170
  138POPC  H13Y18482   5.003   1.963   3.850  0.2300  0.9738  0.6365
  138POPC  C31418483   4.944   1.803   3.966 -0.0728  0.0489 -0.0609
  138POPC  H14X18484   4.886   1.752   3.887  1.5062 -1.0844 -0.4979
  138POPC  H14Y18485   4.889   1.779   4.059 -1.3109 -0.4870 -0.9221
  138POPC  C31518486   5.087   1.750   3.957  0.1603  0.6149  0.2487
  138POPC  H15X18487   5.147   1.782   4.045  0.8431  1.0634 -0.3727
  138POPC  H15Y18488   5.129   1.790   3.862  2.9869  0.8968  1.5628
  138POPC  C31618489   5.090   1.598   3.944  0.3868  0.6594 -0.2517
  138POPC  H16X18490   5.192   1.563   3.916  0.5988  1.9875 -1.1627
  138POPC  H16Y18491   5.025   1.564   3.861  0.4971 -1.0239  0.3155
  138POPC  H16Z18492   5.069   1.545   4.040  0.8509 -1.1126 -1.0962
  139POPC     N18493   2.955   5.619   2.090 -0.7176  0.3028  0.4545
  139POPC   C1218494   2.871   5.600   2.215 -0.2745  0.0449  0.7137
  139POPC  H12A18498   2.941   5.618   2.295  0.7466  0.4651 -0.2549
  139POPC  H12B18499   2.852   5.493   2.209 -0.0978 -0.0254  1.4445
  139POPC   C1318495   2.902   5.539   1.974  0.7222 -0.3286  0.2267
  139POPC  H13A18500   2.872   5.445   2.018 -0.4035 -0.0843 -0.0016
  139POPC  H13B18501   2.806   5.580   1.945  0.8737 -0.3514 -0.3201
  139POPC  H13C18502   2.961   5.544   1.884 -0.6133  1.1682 -0.6044
  139POPC   C1418496   2.959   5.764   2.048  0.0837  0.1919  0.1473
  139POPC  H14A18503   3.000   5.775   1.949 -0.5772 -0.0689 -0.1605
  139POPC  H14B18504   2.858   5.802   2.038  0.1215  0.9385  2.3062
  139POPC  H14C18505   3.009   5.818   2.127  0.1840  1.6473 -0.8968
  139POPC   C1518497   3.096   5.577   2.121 -0.6194  0.2167 -0.1212
  139POPC  H15A18506   3.165   5.614   2.047  0.2118  2.4330  1.7027
  139POPC  H15B18507   3.107   5.471   2.139  0.6066  0.4483  0.5533
  139POPC  H15C18508   3.132   5.631   2.207 -0.7952  0.1267  0.0092
  139POPC   C1118509   2.738   5.673   2.229 -0.1850  0.3759 -0.1484
  139POPC  H11A18510   2.778   5.776   2.243  0.1598 -0.0271  2.0122
  139POPC  H11B18511   2.689   5.639   2.322  1.3969 -1.0204  0.1892
  139POPC     P18512   2.517   5.742   2.099 -0.2098  0.1104  0.0818
  139POPC   O1318513   2.429   5.662   2.011 -0.5241  0.1874  0.3263
  139POPC   O1418514   2.559   5.872   2.041  0.2761 -0.2385 -0.3531
  139POPC   O1218515   2.650   5.655   2.118 -0.4070 -0.1807  0.1203
  139POPC   O1118516   2.445   5.756   2.241 -0.7097  0.0227 -0.1645
  139POPC    C118517   2.403   5.630   2.295  0.7382 -0.2867  0.2380
  139POPC    HA18518   2.468   5.543   2.271 -2.2107 -2.1437 -1.1893
  139POPC    HB18519   2.305   5.599   2.254 -0.7997 -1.2683  4.4243
  139POPC    C218520   2.387   5.621   2.448 -0.0871 -0.4293  0.1453
  139POPC    HS18521   2.296   5.675   2.481 -0.7959  0.0354 -2.4689
  139POPC   O2118522   2.505   5.672   2.512 -0.0072 -0.3343 -0.0770
  139POPC   C2118523   2.494   5.804   2.530  0.4813 -0.1939 -0.8089
  139POPC   O2218524   2.399   5.875   2.504  0.2549 -0.1369  0.1639
  139POPC   C2218525   2.616   5.855   2.605  0.3856 -0.5086 -0.4399
  139POPC   H2R18526   2.569   5.924   2.678  3.1129 -0.6481  1.5274
  139POPC   H2S18527   2.691   5.902   2.537 -0.3677 -3.5143 -3.4642
  139POPC    C318528   2.352   5.478   2.491  0.8054 -0.5817  0.3741
  139POPC    HX18529   2.438   5.419   2.452  0.2671  0.9510 -3.3251
  139POPC    HY18530   2.268   5.431   2.436  1.3114 -0.1082 -0.8196
  139POPC   O3118531   2.349   5.458   2.632  0.4753  0.5680  0.5336
  139POPC   C3118532   2.234   5.475   2.698 -0.1314 -0.0077 -0.3688
  139POPC   O3218533   2.143   5.549   2.665 -0.3253 -0.2037 -0.2696
  139POPC   C3218534   2.240   5.404   2.832  0.1589  1.0034  0.1611
  139POPC   H2X18535   2.306   5.471   2.891  0.6960 -1.3562  2.3283
  139POPC   H2Y18536   2.280   5.301   2.817  1.6970  1.4451  1.0617
  139POPC   C2318537   2.677   5.741   2.687 -0.5812 -0.2594  0.6246
  139POPC   H3R18538   2.727   5.674   2.615 -3.6058  0.3024 -2.1305
  139POPC   H3S18539   2.596   5.684   2.737  0.7653 -0.7332  2.3435
  139POPC   C2418540   2.773   5.784   2.799  0.1185 -0.5656  0.1457
  139POPC   H4R18541   2.843   5.705   2.832 -1.4811 -1.6756  0.9863
  139POPC   H4S18542   2.704   5.818   2.880  0.4169 -0.5866  0.4098
  139POPC   C2518543   2.866   5.895   2.752 -0.7774 -0.0553 -0.4386
  139POPC   H5R18544   2.813   5.978   2.700 -0.1587  1.0206  0.6261
  139POPC   H5S18545   2.953   5.866   2.689 -1.0622 -0.9603 -0.4134
  139POPC   C2618546   2.934   5.968   2.868 -0.3684 -0.1300 -0.6295
  139POPC   H6R18547   3.009   5.907   2.924 -2.3598 -0.9441  1.2455
  139POPC   H6S18548   2.855   5.999   2.940 -0.2956 -0.3484 -0.4558
  139POPC   C2718549   2.987   6.101   2.815 -0.2345  0.2342  0.4067
  139POPC   H7R18550   2.909   6.147   2.751  1.7569  0.2187 -2.0838
  139POPC   H7S18551   3.078   6.076   2.757  0.4666  2.0136  0.7029
  139POPC   C2818552   3.022   6.188   2.936 -0.4967  0.0390  0.6245
  139POPC   H8R18553   3.090   6.128   2.999  2.0184  0.5185 -1.5405
  139POPC   H8S18554   2.932   6.214   2.996 -1.3342  0.0645 -0.6283
  139POPC   C2918555   3.103   6.299   2.875 -0.9434 -0.0535 -0.1434
  139POPC   H9118556   3.206   6.277   2.842 -0.9319 -0.0274 -0.1244
  139POPC  C21018557   3.061   6.424   2.853  0.6316  0.4546 -0.3078
  139POPC  H10118558   3.134   6.484   2.796  3.0486 -0.3424  1.8182
  139POPC  C21118559   2.925   6.480   2.880  0.4107 -0.3780  0.3332
  139POPC  H11R18560   2.836   6.415   2.890 -0.3803  0.7508  0.8348
  139POPC  H11S18561   2.901   6.540   2.789 -2.0781 -1.0892  0.4763
  139POPC  C21218562   2.926   6.573   3.002  0.1327  0.1990 -0.0970
  139POPC  H12R18563   2.834   6.635   2.995 -0.6016 -0.8853 -0.2455
  139POPC  H12S18564   3.016   6.636   2.986 -2.6284  4.2986 -0.1566
  139POPC  C21318565   2.937   6.507   3.140 -0.4436  0.1449 -0.0750
  139POPC  H13R18566   3.027   6.443   3.128 -0.0914  0.5647  0.2901
  139POPC  H13S18567   2.851   6.440   3.160  0.7081 -0.8063  1.8340
  139POPC  C21418568   2.964   6.597   3.261  0.4556 -0.3375  0.0885
  139POPC  H14R18569   3.054   6.659   3.242  1.1703 -1.4085 -0.0832
  139POPC  H14S18570   2.998   6.536   3.348 -0.2828  0.4593  0.9435
  139POPC  C21518571   2.849   6.689   3.304 -0.0763 -1.0065  0.1151
  139POPC  H15R18572   2.823   6.750   3.215  0.2244 -1.3300 -0.1987
  139POPC  H15S18573   2.885   6.745   3.393 -2.3755 -1.3876  1.3232
  139POPC  C21618574   2.720   6.618   3.346 -0.7038  0.0253 -0.0771
  139POPC  H16R18575   2.681   6.556   3.263  1.6698 -0.1363 -1.0923
  139POPC  H16S18576   2.644   6.696   3.371  0.0410  0.4633  0.8521
  139POPC  C21718577   2.742   6.540   3.476  0.1617  0.1691 -0.1313
  139POPC  H17R18578   2.772   6.619   3.548  2.2515 -0.9086  0.2103
  139POPC  H17S18579   2.826   6.469   3.464  1.1214  0.7360  2.7833
  139POPC  C21818580   2.623   6.458   3.526  0.3728  0.1119  0.2825
  139POPC  H18R18581   2.585   6.399   3.439  1.8504  0.5561 -0.6939
  139POPC  H18S18582   2.541   6.525   3.560  0.0719  1.2994 -2.6064
  139POPC  H18T18583   2.638   6.389   3.611 -1.0863 -1.1980 -0.4841
  139POPC   C3318584   2.108   5.409   2.910 -0.0175 -0.5386 -0.0246
  139POPC   H3X18585   2.068   5.512   2.908  0.0910 -0.5044 -0.5685
  139POPC   H3Y18586   2.137   5.396   3.016 -2.0466  1.8223  0.8398
  139POPC   C3418587   2.003   5.305   2.869 -0.1959 -0.3350 -0.0818
  139POPC   H4X18588   2.046   5.203   2.865 -2.6634 -1.3726 -0.7982
  139POPC   H4Y18589   1.972   5.333   2.766 -1.0807 -1.5539 -0.1428
  139POPC   C3518590   1.878   5.308   2.957 -0.1197 -0.2704  0.0252
  139POPC   H5X18591   1.861   5.418   2.947 -0.1729 -0.2074  0.7680
  139POPC   H5Y18592   1.918   5.287   3.058  1.2929 -0.0079 -0.4595
  139POPC   C3618593   1.765   5.216   2.913  0.3626 -0.9699  0.2438
  139POPC   H6X18594   1.803   5.113   2.898  4.1709  0.3043  0.7992
  139POPC   H6Y18595   1.736   5.248   2.810  0.6807 -0.8734  0.1842
  139POPC   C3718596   1.648   5.207   3.011 -0.3392 -0.0466 -0.5029
  139POPC   H7X18597   1.680   5.169   3.110 -2.1309 -0.1744  0.0583
  139POPC   H7Y18598   1.584   5.135   2.957  2.1335 -1.9420 -0.9690
  139POPC   C3818599   1.578   5.343   3.028  0.2463  0.1821  0.0869
  139POPC   H8X18600   1.561   5.361   2.920 -0.6143 -2.9210 -0.3693
  139POPC   H8Y18601   1.650   5.413   3.075  0.7266 -0.0442 -0.3128
  139POPC   C3918602   1.455   5.355   3.119  0.3333  0.1121  0.2132
  139POPC   H9X18603   1.373   5.288   3.086  1.6196 -0.8601 -1.1126
  139POPC   H9Y18604   1.427   5.461   3.106  1.3795  0.1949 -1.5172
  139POPC  C31018605   1.493   5.328   3.265  0.4149 -0.8081  0.0265
  139POPC  H10X18606   1.571   5.400   3.299 -0.4187 -0.2261  0.7333
  139POPC  H10Y18607   1.516   5.222   3.288  0.2209 -0.7960  0.2756
  139POPC  C31118608   1.371   5.365   3.350  0.2550 -0.7922 -0.2079
  139POPC  H11X18609   1.287   5.297   3.328  1.4454 -1.6326 -2.3080
  139POPC  H11Y18610   1.340   5.467   3.318 -1.0070 -0.9123  0.6303
  139POPC  C31218611   1.393   5.388   3.500 -0.2977 -0.0757 -0.2366
  139POPC  H12X18612   1.452   5.477   3.531 -4.0648  2.0354  1.3257
  139POPC  H12Y18613   1.458   5.305   3.534 -1.6847 -0.2481  2.0665
  139POPC  C31318614   1.263   5.392   3.580 -0.3117  0.1842 -0.2715
  139POPC  H13X18615   1.295   5.442   3.674  1.7684  1.1160 -1.4451
  139POPC  H13Y18616   1.225   5.289   3.598  0.9123 -0.2449 -0.0840
  139POPC  C31418617   1.157   5.485   3.520  0.2289  0.8470 -0.2077
  139POPC  H14X18618   1.127   5.462   3.415 -0.7999 -3.9196  1.0059
  139POPC  H14Y18619   1.200   5.587   3.515  1.0540  0.4797 -0.8093
  139POPC  C31518620   1.033   5.491   3.608 -0.1419  0.3733 -0.6929
  139POPC  H15X18621   0.980   5.582   3.571  0.6452  0.7859 -0.8140
  139POPC  H15Y18622   1.067   5.496   3.713  2.6603 -0.4206 -1.5323
  139POPC  C31618623   0.942   5.369   3.596  0.3549 -0.0611 -0.0685
  139POPC  H16X18624   1.006   5.279   3.587  1.6729  1.0623 -2.3177
  139POPC  H16Y18625   0.878   5.368   3.505 -0.2167  0.3225  0.3250
  139POPC  H16Z18626   0.872   5.358   3.682  0.4195 -2.7014 -0.3130
  140POPC     N18627   2.962   1.962   2.283 -0.4061 -0.0262  0.2111
  140POPC   C1218628   2.976   1.816   2.319  0.8280  0.1677  0.5460
  140POPC  H12A18632   3.041   1.817   2.405  2.1019 -0.6863 -0.3800
  140POPC  H12B18633   3.025   1.765   2.237 -1.6240  0.0327 -0.9008
  140POPC   C1318629   3.099   2.021   2.256 -0.4942  0.1591  0.1704
  140POPC  H13A18634   3.076   2.122   2.226 -4.2489  0.0611  2.4374
  140POPC  H13B18635   3.151   2.011   2.350  0.3949  1.3310 -0.1900
  140POPC  H13C18636   3.158   1.966   2.184 -0.4622 -0.0166  0.3287
  140POPC   C1418630   2.881   1.976   2.157  0.5009  0.1304 -0.3642
  140POPC  H14A18637   2.789   1.920   2.163  0.2856  0.6189  1.0992
  140POPC  H14B18638   2.862   2.082   2.146 -0.4979  0.1232  1.1809
  140POPC  H14C18639   2.936   1.927   2.078 -1.7345 -0.0870 -1.8358
  140POPC   C1518631   2.890   2.042   2.388  0.3241  0.1558  0.5785
  140POPC  H15A18640   2.949   2.042   2.478  1.0028 -0.7579  0.1382
  140POPC  H15B18641   2.811   1.980   2.428  0.4481  2.2221  4.2946
  140POPC  H15C18642   2.851   2.137   2.354  1.7858  0.2205 -0.9571
  140POPC   C1118643   2.858   1.731   2.367  0.3944  0.3132 -0.2583
  140POPC  H11A18644   2.835   1.747   2.474 -0.5247 -3.5214  0.1670
  140POPC  H11B18645   2.899   1.629   2.351 -0.3630  0.4080 -3.0951
  140POPC     P18646   2.668   1.622   2.249  0.0223  0.2538  0.2216
  140POPC   O1318647   2.746   1.554   2.143 -0.7635  0.5295 -0.5419
  140POPC   O1418648   2.525   1.643   2.218  0.0249 -0.1797 -0.0899
  140POPC   O1218649   2.743   1.759   2.286  0.1555  0.2263  0.0535
  140POPC   O1118650   2.674   1.537   2.385 -0.0969 -0.2165 -0.0659
  140POPC    C118651   2.559   1.473   2.440  0.2496 -0.3382  0.5143
  140POPC    HA18652   2.597   1.399   2.515  2.3890  0.0502 -0.1437
  140POPC    HB18653   2.508   1.413   2.362  2.1584 -0.5864 -0.5897
  140POPC    C218654   2.461   1.567   2.511 -0.0316 -0.0350 -0.2767
  140POPC    HS18655   2.413   1.627   2.431 -0.0005 -0.4547 -0.6080
  140POPC   O2118656   2.547   1.640   2.599  0.2777 -0.2958 -0.3616
  140POPC   C2118657   2.498   1.755   2.648  0.1377 -0.2285 -0.6563
  140POPC   O2218658   2.383   1.790   2.632  0.0727 -0.3034 -0.3604
  140POPC   C2218659   2.616   1.826   2.713 -0.3413 -0.4937  0.5222
  140POPC   H2R18660   2.664   1.889   2.634  0.4431 -1.1366  0.4783
  140POPC   H2S18661   2.689   1.766   2.770 -1.1222 -1.0015  0.9940
  140POPC    C318662   2.354   1.481   2.581 -0.0701  0.3256  0.1101
  140POPC    HX18663   2.306   1.423   2.500  0.4778 -0.0515  0.0584
  140POPC    HY18664   2.283   1.549   2.633 -0.5059 -1.2257  1.5555
  140POPC   O3118665   2.410   1.396   2.681 -0.0200 -0.4337 -0.5558
  140POPC   C3118666   2.324   1.300   2.714  0.1312 -0.3374  0.1402
  140POPC   O3218667   2.210   1.293   2.671  0.1656 -0.3561  0.0523
  140POPC   C3218668   2.397   1.206   2.808  0.0619 -0.3938  0.1375
  140POPC   H2X18669   2.427   1.273   2.892  1.6809 -0.2339 -0.5478
  140POPC   H2Y18670   2.487   1.169   2.754  0.4175 -2.4564  2.0618
  140POPC   C2318671   2.558   1.930   2.808 -0.3632 -0.0782  0.0605
  140POPC   H3R18672   2.482   1.985   2.749 -0.2472 -1.4301 -1.3606
  140POPC   H3S18673   2.636   2.006   2.828 -0.9163  0.8804 -1.3778
  140POPC   C2418674   2.507   1.879   2.944  0.1441 -0.3623  0.1455
  140POPC   H4R18675   2.585   1.805   2.973  0.2382 -0.8908 -1.4004
  140POPC   H4S18676   2.413   1.828   2.915 -0.1434 -0.8045  1.8083
  140POPC   C2518677   2.502   1.990   3.049 -0.2899 -0.3531  0.1164
  140POPC   H5R18678   2.429   2.071   3.025 -0.1847 -0.3466 -0.1871
  140POPC   H5S18679   2.608   2.023   3.052 -0.1756 -0.4753 -1.6067
  140POPC   C2618680   2.467   1.927   3.183 -0.6025  0.3957  0.3899
  140POPC   H6R18681   2.490   1.818   3.181 -1.5584  0.2027 -0.6509
  140POPC   H6S18682   2.358   1.948   3.196 -0.7146 -1.0307  2.0179
  140POPC   C2718683   2.529   1.988   3.309  0.6336 -0.1234  0.0337
  140POPC   H7R18684   2.512   2.097   3.311 -0.1991 -0.2105 -1.7029
  140POPC   H7S18685   2.637   1.968   3.293  0.5817 -1.6849  1.4806
  140POPC   C2818686   2.472   1.932   3.439  1.2885  0.0720  0.4084
  140POPC   H8R18687   2.474   1.821   3.431  1.4416 -0.0695  2.0576
  140POPC   H8S18688   2.366   1.965   3.434  0.7788 -1.3449  1.3844
  140POPC   C2918689   2.534   1.999   3.558  0.7764  0.8814  0.2209
  140POPC   H9118690   2.620   2.062   3.530  1.2915  0.2508  0.3767
  140POPC  C21018691   2.486   2.008   3.683 -0.1485 -0.4250 -0.0441
  140POPC  H10118692   2.545   2.054   3.763  0.4049  0.7943 -1.1386
  140POPC  C21118693   2.364   1.939   3.738 -0.4191  0.0490 -0.0440
  140POPC  H11R18694   2.395   1.847   3.793  1.3767  0.7285  0.1361
  140POPC  H11S18695   2.302   1.899   3.655 -0.2706 -0.0573 -0.1049
  140POPC  C21218696   2.300   2.034   3.840  0.3220  0.4131  0.0866
  140POPC  H12R18697   2.248   2.118   3.789 -0.9906 -0.8855 -0.7528
  140POPC  H12S18698   2.365   2.082   3.916 -1.2923  2.0407  0.4721
  140POPC  C21318699   2.194   1.967   3.927  0.0885 -0.3534 -0.7762
  140POPC  H13R18700   2.154   2.032   4.008 -0.7050  0.7484 -2.0054
  140POPC  H13S18701   2.234   1.886   3.991 -1.9391 -0.4553  0.4196
  140POPC  C21418702   2.069   1.911   3.858 -0.4890 -0.1790  0.1135
  140POPC  H14R18703   2.007   1.853   3.929  0.5011  1.7363  2.6301
  140POPC  H14S18704   2.108   1.841   3.780  0.5452 -0.6107  1.0014
  140POPC  C21518705   1.991   2.022   3.788  0.1110  0.0647 -0.1763
  140POPC  H15R18706   2.058   2.091   3.733  0.7433 -0.3723  0.0448
  140POPC  H15S18707   1.947   2.085   3.868  1.8440  1.4786 -0.2968
  140POPC  C21618708   1.882   1.974   3.692 -0.0999  0.1749  0.0096
  140POPC  H16R18709   1.837   2.063   3.642 -0.8028 -0.4053 -0.3990
  140POPC  H16S18710   1.808   1.913   3.749 -0.0863 -0.2619 -0.4316
  140POPC  C21718711   1.929   1.882   3.579  0.0349  0.1995  0.0457
  140POPC  H17R18712   1.842   1.873   3.511  1.0185 -1.2391 -1.0331
  140POPC  H17S18713   1.954   1.782   3.622 -1.4691  0.0003  0.4830
  140POPC  C21818714   2.048   1.930   3.496 -0.5225  0.1916 -0.7542
  140POPC  H18R18715   2.038   1.900   3.389  0.9229 -3.5458  0.0578
  140POPC  H18S18716   2.141   1.884   3.535 -0.8627  0.1347 -0.0037
  140POPC  H18T18717   2.054   2.039   3.514  0.1508  0.0609 -0.1708
  140POPC   C3318718   2.310   1.087   2.851 -0.1577 -0.4576 -0.4794
  140POPC   H3X18719   2.315   1.010   2.772 -3.3676  0.4901 -1.6784
  140POPC   H3Y18720   2.203   1.114   2.858 -0.6797 -2.5081 -0.1669
  140POPC   C3418721   2.336   1.036   2.993  0.1434  0.0423 -0.3508
  140POPC   H4X18722   2.252   0.969   3.021 -0.1015  0.8043  0.7411
  140POPC   H4Y18723   2.341   1.132   3.047 -2.5757  1.2632 -2.1472
  140POPC   C3518724   2.472   0.970   3.017 -0.2685 -0.3968  0.8085
  140POPC   H5X18725   2.563   1.032   2.999 -0.0588 -0.2085  2.4496
  140POPC   H5Y18726   2.472   0.896   2.935  0.3901  0.2735  0.1950
  140POPC   C3618727   2.495   0.916   3.158 -0.0064 -1.1949  0.4605
  140POPC   H6X18728   2.593   0.865   3.145  0.4417 -0.2241 -0.0116
  140POPC   H6Y18729   2.406   0.854   3.182 -0.4289 -0.6559  0.2980
  140POPC   C3718730   2.503   1.027   3.263  0.0416 -0.9107  0.1548
  140POPC   H7X18731   2.402   1.074   3.267 -0.5346 -2.0746 -0.4928
  140POPC   H7Y18732   2.575   1.107   3.236 -0.3942 -0.6026 -0.1038
  140POPC   C3818733   2.544   0.983   3.403  0.2085 -0.1965  0.3328
  140POPC   H8X18734   2.613   0.897   3.388 -0.2287 -0.5257  0.2060
  140POPC   H8Y18735   2.457   0.937   3.454  1.0434 -2.4977 -0.2192
  140POPC   C3918736   2.621   1.099   3.467 -0.4899  0.1704  0.5043
  140POPC   H9X18737   2.592   1.198   3.425  1.5776  0.9192  0.7845
  140POPC   H9Y18738   2.727   1.089   3.435  0.0639  1.5119  1.8828
  140POPC  C31018739   2.626   1.097   3.620 -0.3593 -0.3422  0.4925
  140POPC  H10X18740   2.525   1.080   3.662 -0.2282 -2.4685  0.0140
  140POPC  H10Y18741   2.672   1.186   3.666  0.5834 -0.4592 -0.2080
  140POPC  C31118742   2.700   0.972   3.668 -0.0587 -0.4862 -0.3377
  140POPC  H11X18743   2.809   0.990   3.650  0.0848 -0.4039  0.6208
  140POPC  H11Y18744   2.678   0.888   3.598  2.2984 -0.5992 -0.9809
  140POPC  C31218745   2.673   0.937   3.814 -0.1827 -0.1585 -0.2806
  140POPC  H12X18746   2.565   0.913   3.818 -0.3702  0.5807 -1.0015
  140POPC  H12Y18747   2.691   1.018   3.888  1.4179 -0.6832 -0.0641
  140POPC  C31318748   2.740   0.808   3.862 -0.0885  0.0738  0.2159
  140POPC  H13X18749   2.848   0.816   3.836  0.3053  1.7239  2.2364
  140POPC  H13Y18750   2.681   0.723   3.820 -1.2150 -0.0414  1.9655
  140POPC  C31418751   2.734   0.791   4.014 -0.6610 -0.3553  0.1482
  140POPC  H14X18752   2.626   0.781   4.035 -0.2696 -3.4370  0.9664
  140POPC  H14Y18753   2.775   0.888   4.049  0.5526 -0.5696 -0.6445
  140POPC  C31518754   2.826   0.679   4.066 -0.4813  0.1375  0.8955
  140POPC  H15X18755   2.815   0.678   4.177 -0.1520 -0.5328  0.9238
  140POPC  H15Y18756   2.928   0.714   4.040 -0.1808 -0.5739  1.1293
  140POPC  C31618757   2.803   0.541   4.006 -0.2097  0.5813 -0.2328
  140POPC  H16X18758   2.775   0.539   3.898  1.0777  0.4393 -0.5713
  140POPC  H16Y18759   2.719   0.491   4.059 -0.0902 -1.1961 -1.6471
  140POPC  H16Z18760   2.887   0.474   4.035 -2.0790 -0.3694  3.1442
  141POPC     N18761   1.849   0.135   2.168 -0.0255 -0.0999  0.4629
  141POPC   C1218762   1.738   0.034   2.167 -0.3867  0.3030 -0.1890
  141POPC  H12A18766   1.777   7.898   2.191 -0.6041  0.3182  0.4061
  141POPC  H12B18767   1.683   0.033   2.074 -1.4213  0.8877  0.4095
  141POPC   C1318763   1.948   0.110   2.057  0.2334 -0.0663  0.6835
  141POPC  H13A18768   2.020   0.190   2.047 -0.9562  0.9885  0.4211
  141POPC  H13B18769   1.990   0.012   2.074 -1.7244 -0.8244  1.2493
  141POPC  H13C18770   1.897   0.101   1.962 -0.1470  1.9953  0.6800
  141POPC   C1418764   1.798   0.275   2.143 -0.3547 -0.2594  0.2521
  141POPC  H14A18771   1.748   0.270   2.047 -0.4941  1.2389  0.2385
  141POPC  H14B18772   1.728   0.313   2.215  1.7293  0.7614  1.7741
  141POPC  H14C18773   1.882   0.342   2.132 -0.5922  0.4653  2.5778
  141POPC   C1518765   1.934   0.137   2.293  0.2857 -0.3603  0.2551
  141POPC  H15A18774   1.883   0.170   2.382  0.4597 -0.5519  0.4289
  141POPC  H15B18775   2.025   0.194   2.286  1.9852 -2.9556  0.3727
  141POPC  H15C18776   1.965   0.035   2.309 -2.2002 -1.2661 -0.5258
  141POPC   C1118777   1.626   0.060   2.268  0.0963  0.0258  0.4236
  141POPC  H11A18778   1.667   0.043   2.369 -0.6862  1.1039  0.9339
  141POPC  H11B18779   1.549   7.944   2.253 -2.4557  2.2999  1.0147
  141POPC     P18780   1.438   0.191   2.162  0.2084 -0.2577 -0.1180
  141POPC   O1318781   1.455   0.109   2.040 -0.0748  0.4982 -0.6724
  141POPC   O1418782   1.393   0.330   2.136  0.6995 -0.0589  0.0845
  141POPC   O1218783   1.566   0.190   2.258  0.1020 -0.0008  0.0286
  141POPC   O1118784   1.331   0.114   2.252  0.0551  0.1298  0.0317
  141POPC    C118785   1.230   0.174   2.334 -0.0936 -0.2216  0.1055
  141POPC    HA18786   1.157   0.093   2.355 -0.1198 -0.1852  0.1535
  141POPC    HB18787   1.171   0.241   2.268 -1.2842 -2.2158 -0.8776
  141POPC    C218788   1.275   0.256   2.457 -0.3290  0.1826 -0.0801
  141POPC    HS18789   1.336   0.343   2.425  0.6344  0.2749  1.9605
  141POPC   O2118790   1.353   0.162   2.530 -0.2372  0.1689 -0.1953
  141POPC   C2118791   1.449   0.220   2.602 -0.1392 -0.0484 -0.1480
  141POPC   O2218792   1.472   0.340   2.600 -0.0412 -0.0540  0.4697
  141POPC   C2218793   1.502   0.122   2.705 -0.2321 -0.2194 -0.2635
  141POPC   H2R18794   1.594   0.069   2.670 -0.6508 -0.4756 -0.9828
  141POPC   H2S18795   1.420   0.048   2.719 -0.6909  0.1929 -0.7529
  141POPC    C318796   1.156   0.300   2.544  0.1162 -0.0680  0.6573
  141POPC    HX18797   1.099   0.212   2.580 -1.0200  0.0515 -0.7962
  141POPC    HY18798   1.086   0.353   2.476 -0.6080 -0.3604  1.1776
  141POPC   O3118799   1.199   0.383   2.652  0.7574  0.0023  0.3483
  141POPC   C3118800   1.188   0.512   2.621  0.4424 -0.1485 -0.1706
  141POPC   O3218801   1.134   0.566   2.526  0.6380  0.0722 -0.1588
  141POPC   C3218802   1.273   0.590   2.721  0.0165  0.5960 -0.3810
  141POPC   H2X18803   1.362   0.633   2.671 -0.5835  0.1286 -1.8661
  141POPC   H2Y18804   1.312   0.517   2.795 -0.5427  0.2611 -0.4039
  141POPC   C2318805   1.522   0.195   2.838 -0.4585 -0.5146 -0.0651
  141POPC   H3R18806   1.435   0.257   2.869 -0.9502 -1.3935  0.3207
  141POPC   H3S18807   1.605   0.266   2.819 -0.2780 -0.2296  1.7652
  141POPC   C2418808   1.550   0.112   2.963  0.3507 -0.0767  0.0501
  141POPC   H4R18809   1.644   0.056   2.947  1.0873  1.7362 -2.1218
  141POPC   H4S18810   1.463   0.043   2.978 -1.1601  1.5856 -0.9038
  141POPC   C2518811   1.559   0.198   3.089 -0.3367  0.0656  0.0028
  141POPC   H5R18812   1.467   0.258   3.107  0.7423  0.7250  3.6276
  141POPC   H5S18813   1.651   0.258   3.075  1.1673 -2.6443 -2.1565
  141POPC   C2618814   1.581   0.114   3.215  0.9061  0.8835  0.3416
  141POPC   H6R18815   1.683   0.072   3.218  0.8016  0.4385 -1.5776
  141POPC   H6S18816   1.511   0.028   3.213  1.1087  0.7371 -0.8734
  141POPC   C2718817   1.540   0.187   3.343 -0.0991  0.4094  0.2977
  141POPC   H7R18818   1.457   0.259   3.328 -0.3203 -0.3848 -2.5330
  141POPC   H7S18819   1.624   0.254   3.372  1.6855 -1.2583 -0.9303
  141POPC   C2818820   1.510   0.114   3.474  0.6751  0.2321  0.3787
  141POPC   H8R18821   1.576   0.025   3.475 -0.0516 -0.3363 -0.9648
  141POPC   H8S18822   1.409   0.068   3.466  0.7934  0.4635 -3.1613
  141POPC   C2918823   1.534   0.195   3.597 -0.3770 -0.1162  0.8216
  141POPC   H9118824   1.559   0.302   3.584  2.8879 -0.8202  0.7869
  141POPC  C21018825   1.530   0.140   3.720  0.0640 -0.1716  0.8127
  141POPC  H10118826   1.546   0.206   3.806 -2.0367  1.4035  0.0524
  141POPC  C21118827   1.510   7.959   3.759  0.0108 -0.3031  0.4641
  141POPC  H11R18828   1.605   7.905   3.781  0.1108 -0.3524 -0.0991
  141POPC  H11S18829   1.461   7.890   3.688 -2.8588 -0.1322  2.1967
  141POPC  C21218830   1.423   7.944   3.884  0.1356 -0.0412  0.5836
  141POPC  H12R18831   1.396   0.075   3.938  1.4631  0.4104  0.5464
  141POPC  H12S18832   1.475   7.887   3.964  0.5484 -0.5110 -0.0092
  141POPC  C21318833   1.295   7.868   3.850  0.5477 -0.3174 -0.3664
  141POPC  H13R18834   1.325   7.769   3.811  0.2653 -0.8225  0.6766
  141POPC  H13S18835   1.250   7.925   3.765 -1.9474 -1.9769 -0.2331
  141POPC  C21418836   1.195   7.866   3.966  0.3593 -1.3015 -0.5443
  141POPC  H14R18837   1.157   0.006   3.986  0.3177 -1.2511 -0.6740
  141POPC  H14S18838   1.241   7.832   4.061  0.4762  1.6174  0.4894
  141POPC  C21518839   1.077   7.774   3.933 -0.2501 -0.6340 -0.2498
  141POPC  H15R18840   1.114   7.670   3.916  0.2785 -0.3509 -0.8301
  141POPC  H15S18841   1.026   7.818   3.846  2.1314 -0.1370 -1.4292
  141POPC  C21618842   0.974   7.770   4.046  0.2656  0.4917  0.2672
  141POPC  H16R18843   0.934   7.873   4.060 -1.7838  0.0427 -1.8878
  141POPC  H16S18844   1.028   7.741   4.138  0.2830  2.4310  0.9103
  141POPC  C21718845   0.870   7.659   4.026 -0.0332  0.7759  0.2178
  141POPC  H17R18846   0.938   7.572   4.013  1.5488  1.7267  1.7555
  141POPC  H17S18847   0.809   7.676   3.935 -2.0568  0.0054  1.3966
  141POPC  C21818848   0.794   7.627   4.154 -0.1029  0.2908  0.0550
  141POPC  H18R18849   0.716   7.548   4.143  0.1932  0.2778 -2.1256
  141POPC  H18S18850   0.750   7.719   4.198 -1.0423 -0.1935  0.1391
  141POPC  H18T18851   0.865   7.583   4.228  0.7419 -0.9096 -1.4283
  141POPC   C3318852   1.193   0.695   2.798 -0.0572  0.1361  0.1750
  141POPC   H3X18853   1.113   0.649   2.859  1.3856 -0.6389  1.5292
  141POPC   H3Y18854   1.142   0.767   2.731 -1.3549 -2.3203 -1.5221
  141POPC   C3418855   1.282   0.783   2.887  0.0889 -0.0048  0.1684
  141POPC   H4X18856   1.320   0.856   2.812 -1.1801  0.0622 -0.4094
  141POPC   H4Y18857   1.361   0.714   2.923 -1.0083 -0.4439  1.7720
  141POPC   C3518858   1.213   0.858   3.001 -0.5511  0.3884 -0.4782
  141POPC   H5X18859   1.286   0.881   3.081 -1.8976  1.3187  0.5152
  141POPC   H5Y18860   1.138   0.788   3.045 -0.5690  0.6104 -0.1554
  141POPC   C3618861   1.140   0.985   2.955  0.1322  0.6673 -0.7964
  141POPC   H6X18862   1.107   0.966   2.851  0.2507  1.9059 -1.0661
  141POPC   H6Y18863   1.208   1.072   2.961  2.9954 -1.5397 -0.1358
  141POPC   C3718864   1.015   1.015   3.038  0.4725  0.6607 -0.2778
  141POPC   H7X18865   0.934   0.947   3.002  2.1820 -1.6940  0.1657
  141POPC   H7Y18866   0.984   1.119   3.015 -3.3168 -0.0793  1.2055
  141POPC   C3818867   1.013   1.003   3.190 -0.3539  0.3320 -0.3098
  141POPC   H8X18868   1.044   0.899   3.214  1.7286  1.3560  1.6846
  141POPC   H8Y18869   0.914   1.025   3.237  0.1065  1.1065  0.3289
  141POPC   C3918870   1.118   1.097   3.251 -0.2932 -0.1597  0.3494
  141POPC   H9X18871   1.085   1.203   3.247 -0.0283 -0.1316 -4.0074
  141POPC   H9Y18872   1.211   1.087   3.191 -0.6898 -0.8738 -0.1632
  141POPC  C31018873   1.149   1.058   3.395  0.7873 -0.0557  0.1482
  141POPC  H10X18874   1.242   0.998   3.404  2.0350  1.6350 -1.1320
  141POPC  H10Y18875   1.061   1.016   3.448 -0.5028  0.3037 -1.6635
  141POPC  C31118876   1.190   1.181   3.477 -0.1956  0.3546  0.0234
  141POPC  H11X18877   1.272   1.232   3.423  2.6505 -1.7722  2.1973
  141POPC  H11Y18878   1.232   1.141   3.572  0.6761  0.5857 -0.2630
  141POPC  C31218879   1.073   1.278   3.496 -0.4175  0.0668  0.1305
  141POPC  H12X18880   0.988   1.216   3.533  0.6544 -0.1201  2.3501
  141POPC  H12Y18881   1.029   1.321   3.403 -1.5313 -2.6043 -0.6285
  141POPC  C31318882   1.107   1.378   3.606 -0.1539 -0.1245  0.2244
  141POPC  H13X18883   1.119   1.323   3.702 -0.1498  0.0505  0.3243
  141POPC  H13Y18884   1.011   1.432   3.622 -0.1140 -0.5356  2.0057
  141POPC  C31418885   1.203   1.489   3.563 -0.1301 -0.2493 -0.0436
  141POPC  H14X18886   1.151   1.547   3.484  1.7347  1.1147 -0.2831
  141POPC  H14Y18887   1.299   1.446   3.528  1.4137  1.5642  1.8360
  141POPC  C31518888   1.233   1.587   3.676 -0.6380 -0.6914  0.4768
  141POPC  H15X18889   1.319   1.651   3.648 -1.1558 -0.8041 -1.3955
  141POPC  H15Y18890   1.268   1.543   3.772 -0.1416 -3.4267 -0.9216
  141POPC  C31618891   1.110   1.670   3.711 -0.3810 -0.2816  0.4061
  141POPC  H16X18892   1.059   1.710   3.621 -0.9913 -1.8301  0.0651
  141POPC  H16Y18893   1.139   1.747   3.786 -0.6668 -0.2511  0.4882
  141POPC  H16Z18894   1.035   1.604   3.760 -1.4371 -0.3195 -1.2111
  142POPC     N18895   4.993   6.104   1.778 -0.2485 -0.3448 -0.3026
  142POPC   C1218896   4.874   6.134   1.866  0.2371  0.0758  0.2159
  142POPC  H12A18900   4.818   6.041   1.874  0.5849 -0.3574 -1.9757
  142POPC  H12B18901   4.801   6.200   1.822 -2.3359 -3.1148 -0.5462
  142POPC   C1318897   5.090   6.002   1.830  0.4981  0.4995 -0.0286
  142POPC  H13A18902   5.140   6.034   1.920 -1.4054  0.0145  1.2242
  142POPC  H13B18903   5.039   5.909   1.852  1.2064  0.1775  0.2725
  142POPC  H13C18904   5.165   5.966   1.760 -0.6254 -0.4269 -0.7738
  142POPC   C1418898   4.951   6.055   1.641  0.1612  0.0704 -0.5803
  142POPC  H14A18905   4.884   5.973   1.660 -0.7143  1.2964  1.8329
  142POPC  H14B18906   4.890   6.136   1.605 -1.6756 -1.2910 -0.5917
  142POPC  H14C18907   5.033   6.030   1.575  0.1050 -0.7077 -0.3624
  142POPC   C1518899   5.060   6.238   1.757 -0.1931 -0.3255 -0.0063
  142POPC  H15A18908   5.073   6.278   1.856 -1.0250  0.2886 -0.1337
  142POPC  H15B18909   4.999   6.312   1.706  1.3222  0.5508 -0.6003
  142POPC  H15C18910   5.155   6.225   1.707 -0.2573  0.3301 -0.3072
  142POPC   C1118911   4.897   6.198   2.003 -0.4921  0.1899  0.2884
  142POPC  H11A18912   4.796   6.208   2.047 -0.5482  0.5080  0.0896
  142POPC  H11B18913   4.943   6.299   2.000  2.1542 -0.9959 -1.0150
  142POPC     P18914   4.920   5.996   2.179 -0.1321  0.0349 -0.0634
  142POPC   O1318915   5.028   5.931   2.257 -0.2158 -0.0425 -0.0125
  142POPC   O1418916   4.837   5.903   2.099 -0.2010  0.2829 -0.2829
  142POPC   O1218917   4.978   6.110   2.083 -0.2462  0.0717 -0.0871
  142POPC   O1118918   4.824   6.083   2.273 -0.5231 -0.3577 -0.0986
  142POPC    C118919   4.862   6.207   2.333  0.4724 -0.6622 -0.0975
  142POPC    HA18920   4.776   6.277   2.326 -1.2280 -2.6659  0.2964
  142POPC    HB18921   4.943   6.265   2.283  0.7244 -0.1892  0.8467
  142POPC    C218922   4.892   6.179   2.481 -0.0381  0.3139  0.1934
  142POPC    HS18923   4.986   6.122   2.492 -0.3077 -0.0462  0.6402
  142POPC   O2118924   4.773   6.112   2.523  0.0304  0.3644  0.4738
  142POPC   C2118925   4.803   6.040   2.631  0.3382 -0.0633  0.1048
  142POPC   O2218926   4.912   6.031   2.684  0.0192 -0.3599  0.7138
  142POPC   C2218927   4.685   5.948   2.658 -0.0289  0.4981  0.4166
  142POPC   H2R18928   4.679   5.869   2.580 -1.3655 -0.3178  1.3252
  142POPC   H2S18929   4.594   6.010   2.642 -0.1054  0.5112  0.8933
  142POPC    C318930   4.906   6.314   2.555 -0.3924  0.5848 -0.2317
  142POPC    HX18931   4.812   6.368   2.536 -0.6623  0.5227  0.9080
  142POPC    HY18932   4.997   6.359   2.508 -0.7357  1.7802  0.2549
  142POPC   O3118933   4.929   6.302   2.695  0.2529  0.4797 -0.3423
  142POPC   C3118934   5.053   6.294   2.744  0.0705  0.7509  0.1672
  142POPC   O3218935   5.158   6.283   2.683 -0.0037  0.4077  0.0986
  142POPC   C3218936   5.037   6.303   2.895 -0.4567  0.3726  0.1332
  142POPC   H2X18937   4.949   6.246   2.932 -1.7368  2.0588 -0.2698
  142POPC   H2Y18938   5.019   6.408   2.924  0.6186 -0.2165  3.1441
  142POPC   C2318939   4.690   5.889   2.799 -0.2292 -0.4626  0.0251
  142POPC   H3R18940   4.791   5.845   2.810 -1.0515 -1.5002  4.3435
  142POPC   H3S18941   4.622   5.802   2.811 -1.4649  0.5891  0.8862
  142POPC   C2418942   4.664   6.000   2.902  0.5415 -0.1028 -0.1645
  142POPC   H4R18943   4.559   6.032   2.884  0.0065 -2.8992 -2.4476
  142POPC   H4S18944   4.723   6.093   2.888 -0.5703  0.4572 -1.2314
  142POPC   C2518945   4.687   5.960   3.048  0.2251 -0.0731 -0.1048
  142POPC   H5R18946   4.795   5.934   3.054 -0.1623 -1.8928 -0.6254
  142POPC   H5S18947   4.629   5.871   3.080  0.4101  0.0914  0.7052
  142POPC   C2618948   4.652   6.078   3.139  0.3747  0.0656 -0.2251
  142POPC   H6R18949   4.541   6.075   3.130  0.3687 -0.8008  0.0465
  142POPC   H6S18950   4.680   6.179   3.103 -0.2607  0.1341 -0.5407
  142POPC   C2718951   4.699   6.050   3.282 -0.0177 -0.1856 -0.1424
  142POPC   H7R18952   4.810   6.049   3.282  0.0202  1.4795  2.0226
  142POPC   H7S18953   4.655   5.952   3.309 -1.5985  0.7597  0.7408
  142POPC   C2818954   4.649   6.145   3.390  0.1674 -0.3467  0.0839
  142POPC   H8R18955   4.672   6.088   3.483 -1.1810 -2.4760 -0.8572
  142POPC   H8S18956   4.541   6.170   3.382 -0.1803 -2.1003 -0.8990
  142POPC   C2918957   4.728   6.272   3.374  0.0431 -0.2952 -0.1202
  142POPC   H9118958   4.723   6.329   3.280  1.1616 -1.7538 -1.0798
  142POPC  C21018959   4.803   6.326   3.471 -0.2265  0.0462 -0.1015
  142POPC  H10118960   4.861   6.415   3.443  0.7418 -0.1135  1.3755
  142POPC  C21118961   4.827   6.279   3.611  0.0997 -0.0517 -0.1895
  142POPC  H11R18962   4.877   6.180   3.604  0.3312  0.1385 -1.2429
  142POPC  H11S18963   4.734   6.258   3.669  0.8710  2.4694  2.0683
  142POPC  C21218964   4.903   6.370   3.708  0.4128 -0.1966 -0.2989
  142POPC  H12R18965   4.844   6.456   3.746  0.9214  0.1291 -0.2526
  142POPC  H12S18966   4.991   6.401   3.648  0.0965  0.0929 -0.6149
  142POPC  C21318967   4.969   6.303   3.829 -0.2076  0.0425  0.1735
  142POPC  H13R18968   5.029   6.221   3.786 -1.8700 -2.0412  1.7413
  142POPC  H13S18969   4.886   6.251   3.880  1.1472 -0.6468  1.7123
  142POPC  C21418970   5.044   6.397   3.924  0.1733  0.3161 -0.3961
  142POPC  H14R18971   5.063   6.345   4.019 -0.5797  0.1965 -0.3074
  142POPC  H14S18972   4.983   6.485   3.953  0.7487  1.4472 -2.4535
  142POPC  C21518973   5.176   6.449   3.867 -0.0668  0.8399 -0.4898
  142POPC  H15R18974   5.218   6.543   3.909 -2.3288  0.8655  1.7948
  142POPC  H15S18975   5.155   6.468   3.760 -0.7773  1.0328 -0.3182
  142POPC  C21618976   5.292   6.350   3.885 -0.2998  0.5851 -0.3964
  142POPC  H16R18977   5.283   6.248   3.841  1.3951 -0.0360  0.6821
  142POPC  H16S18978   5.315   6.338   3.993  2.3265 -2.3704 -1.2016
  142POPC  C21718979   5.421   6.403   3.823  0.1785  0.2629  0.3142
  142POPC  H17R18980   5.444   6.508   3.851 -3.1308  1.0393  0.4023
  142POPC  H17S18981   5.411   6.409   3.712  2.6991 -1.4510 -0.0502
  142POPC  C21818982   5.547   6.324   3.857 -0.2466 -0.7805 -0.4956
  142POPC  H18R18983   5.538   6.214   3.845 -0.5825 -0.8844  0.6714
  142POPC  H18S18984   5.581   6.341   3.961  2.7811  2.6010 -1.9394
  142POPC  H18T18985   5.634   6.355   3.796 -0.5122  0.9693 -0.0233
  142POPC   C3318986   5.169   6.260   2.959 -0.0304  1.1171 -0.2514
  142POPC   H3X18987   5.241   6.338   2.924  0.3685  1.0885  0.4832
  142POPC   H3Y18988   5.183   6.158   2.918  0.0970  0.5813  1.0919
  142POPC   C3418989   5.163   6.254   3.112 -0.2453  0.0740 -0.2999
  142POPC   H4X18990   5.087   6.181   3.147  0.1499 -0.6666 -0.9686
  142POPC   H4Y18991   5.116   6.350   3.141 -0.0777 -0.2255  0.9855
  142POPC   C3518992   5.299   6.253   3.183 -0.5642 -0.6549  0.3024
  142POPC   H5X18993   5.375   6.279   3.107  0.1865 -1.7056  0.6915
  142POPC   H5Y18994   5.325   6.149   3.210  0.4325 -0.3061  0.7010
  142POPC   C3618995   5.310   6.326   3.318  0.0502 -0.0242 -0.0887
  142POPC   H6X18996   5.300   6.436   3.305  0.2684 -0.1535 -1.5207
  142POPC   H6Y18997   5.413   6.308   3.354  0.7378 -1.6172 -2.7059
  142POPC   C3718998   5.200   6.289   3.418 -0.0548  0.4203 -0.0402
  142POPC   H7X18999   5.113   6.232   3.379  0.6457 -0.7759  0.1127
  142POPC   H7Y19000   5.153   6.379   3.461  2.7311  2.9675 -2.0773
  142POPC   C3819001   5.253   6.203   3.532 -0.2850  0.7004  0.2768
  142POPC   H8X19002   5.174   6.201   3.610 -0.8238  1.8888 -0.2359
  142POPC   H8Y19003   5.341   6.262   3.568  0.0965  1.0830 -1.2578
  142POPC   C3919004   5.297   6.062   3.494 -0.6547  0.6242  0.1296
  142POPC   H9X19005   5.388   6.055   3.430  0.7571 -3.8281  2.3674
  142POPC   H9Y19006   5.214   6.008   3.444 -0.2591 -1.8323  2.0030
  142POPC  C31019007   5.323   5.981   3.621  0.4081  0.3052 -0.2846
  142POPC  H10X19008   5.227   5.963   3.675  0.2630  0.9643 -0.3275
  142POPC  H10Y19009   5.386   6.034   3.696 -0.7887 -0.6594  1.4507
  142POPC  C31119010   5.389   5.845   3.593  0.1275  0.1396 -0.1428
  142POPC  H11X19011   5.475   5.852   3.524  0.3357  0.6371  0.1595
  142POPC  H11Y19012   5.303   5.789   3.552  0.8030 -0.5078 -0.6829
  142POPC  C31219013   5.429   5.776   3.724 -0.8758  0.2901  0.2477
  142POPC  H12X19014   5.423   5.666   3.712  1.0564 -0.0027  1.7082
  142POPC  H12Y19015   5.352   5.821   3.790 -0.6064  1.5620 -0.2737
  142POPC  C31319016   5.573   5.800   3.771 -0.6726 -0.1980 -0.1234
  142POPC  H13X19017   5.581   5.766   3.876 -0.4885 -0.9297 -0.3689
  142POPC  H13Y19018   5.583   5.911   3.772  3.3168 -0.4086 -3.3371
  142POPC  C31419019   5.670   5.711   3.694 -0.6641  0.0192 -0.3652
  142POPC  H14X19020   5.663   5.744   3.588 -0.3434 -0.2093 -0.4583
  142POPC  H14Y19021   5.644   5.603   3.704 -0.8918  0.1094  0.0017
  142POPC  C31519022   5.813   5.741   3.738 -1.0105  0.2206  0.6253
  142POPC  H15X19023   5.849   5.846   3.734  3.2685 -1.2102 -0.8670
  142POPC  H15Y19024   5.869   5.681   3.664 -2.7516 -0.2285 -0.3418
  142POPC  C31619025   5.872   5.679   3.864  0.1552  0.1881  0.0700
  142POPC  H16X19026   5.970   5.728   3.883  0.7940 -1.0363  0.0044
  142POPC  H16Y19027   5.888   5.570   3.845 -1.1792  0.2523 -1.4463
  142POPC  H16Z19028   5.815   5.683   3.960  0.8810 -0.5793  0.5463
  143POPC     N19029   6.264   3.577   2.278  0.1833 -0.0333  0.0028
  143POPC   C1219030   6.199   3.441   2.281 -0.3913  0.2332 -0.2563
  143POPC  H12A19034   6.266   3.359   2.259  0.3268  0.5081  0.9053
  143POPC  H12B19035   6.132   3.444   2.196  0.2681 -0.5241 -0.8123
  143POPC   C1319031   6.307   3.600   2.135 -0.3555  0.0489 -0.1471
  143POPC  H13A19036   6.369   3.518   2.100 -1.9769 -0.8635 -0.9885
  143POPC  H13B19037   6.213   3.607   2.081  0.2617 -0.4654 -1.3017
  143POPC  H13C19038   6.361   3.693   2.134  1.3144 -0.8844  0.5097
  143POPC   C1419032   6.164   3.682   2.319  0.1941  0.1146 -0.3446
  143POPC  H14A19039   6.077   3.679   2.256  0.6266  1.0453 -0.9863
  143POPC  H14B19040   6.142   3.660   2.423  0.1391  1.4874 -0.0563
  143POPC  H14C19041   6.211   3.778   2.303  1.1392 -0.8195 -3.4783
  143POPC   C1519033   6.386   3.589   2.366  0.3105  0.1468 -0.1987
  143POPC  H15A19042   6.349   3.553   2.461  0.1720  0.9352  0.0537
  143POPC  H15B19043   6.422   3.690   2.378 -0.1252  0.3395 -0.4959
  143POPC  H15C19044   6.469   3.533   2.325  0.3668  1.2737 -1.6914
  143POPC   C1119045   6.130   3.410   2.414 -0.2407 -0.0971 -0.2557
  143POPC  H11A19046   6.094   3.305   2.403  1.2344 -0.5446 -0.9598
  143POPC  H11B19047   6.044   3.477   2.432 -1.0841 -0.9826 -0.9320
  143POPC     P19048   6.236   3.299   2.623 -0.0043  0.0394  0.0836
  143POPC   O1319049   6.309   3.342   2.744 -0.1525 -0.3324  0.3060
  143POPC   O1419050   6.300   3.201   2.532 -0.2424 -0.3739  0.3568
  143POPC   O1219051   6.212   3.427   2.530 -0.0260 -0.2990 -0.3769
  143POPC   O1119052   6.089   3.253   2.667  0.0122 -0.0204  0.0758
  143POPC    C119053   6.005   3.348   2.732  0.2290 -0.0410  0.3867
  143POPC    HA19054   5.902   3.308   2.742  1.0598 -2.4720 -0.4824
  143POPC    HB19055   6.013   3.444   2.677 -2.3291  0.1704  0.2961
  143POPC    C219056   6.049   3.381   2.876 -0.2925  0.0756  0.5204
  143POPC    HS19057   6.139   3.447   2.875 -2.0784  2.6305 -0.7909
  143POPC   O2119058   6.081   3.257   2.938 -0.0525 -0.2437 -0.2391
  143POPC   C2119059   6.174   3.267   3.033  0.7240 -1.0138 -0.9164
  143POPC   O2219060   6.252   3.361   3.043 -0.0227 -0.4882 -0.0317
  143POPC   C2219061   6.172   3.149   3.130 -0.4906  0.1146  0.4342
  143POPC   H2R19062   6.255   3.147   3.204  0.4381  1.7937 -0.5229
  143POPC   H2S19063   6.173   3.051   3.079  2.1828  1.0994 -1.5208
  143POPC    C319064   5.934   3.452   2.950  0.0364  0.6130  0.5158
  143POPC    HX19065   5.843   3.394   2.927  0.6073  0.0751 -0.4351
  143POPC    HY19066   5.928   3.557   2.913 -1.5331 -0.7762 -3.4315
  143POPC   O3119067   5.947   3.451   3.092 -0.2242 -0.3778  0.5316
  143POPC   C3119068   5.865   3.532   3.160  0.2600  0.4980  0.0813
  143POPC   O3219069   5.770   3.593   3.115 -0.1066  0.1157  0.3305
  143POPC   C3219070   5.911   3.530   3.305  0.4161  0.2846  0.0298
  143POPC   H2X19071   6.021   3.544   3.310  0.3436  0.5402  0.8856
  143POPC   H2Y19072   5.873   3.436   3.350 -0.9985  1.4771  1.3807
  143POPC   C2319073   6.040   3.164   3.206 -0.7140 -0.0049  0.0755
  143POPC   H3R19074   5.960   3.161   3.130  0.0292  0.9387 -0.7614
  143POPC   H3S19075   6.038   3.262   3.258 -1.8461  0.5650 -1.0100
  143POPC   C2419076   6.007   3.064   3.317 -0.1736 -0.1303  0.1232
  143POPC   H4R19077   6.026   2.964   3.270  5.0098  1.1231 -0.8457
  143POPC   H4S19078   5.909   3.084   3.363  0.3341 -0.6381  1.4407
  143POPC   C2519079   6.107   3.064   3.433  0.0395  0.0297 -0.0599
  143POPC   H5R19080   6.209   3.047   3.393 -0.7135 -1.3076 -1.4495
  143POPC   H5S19081   6.086   2.970   3.488  2.2231 -0.2824  0.2960
  143POPC   C2619082   6.113   3.188   3.522  0.3864 -0.6629  0.8889
  143POPC   H6R19083   6.006   3.220   3.529 -0.0409 -1.5862 -1.1493
  143POPC   H6S19084   6.177   3.264   3.472 -1.0500 -0.2329 -0.3633
  143POPC   C2719085   6.178   3.173   3.660  0.9474 -0.4218  0.6508
  143POPC   H7R19086   6.287   3.159   3.640  1.0000  0.2660  0.4586
  143POPC   H7S19087   6.139   3.082   3.711 -0.3964 -0.0697  0.2721
  143POPC   C2819088   6.153   3.297   3.745 -0.4695 -0.2847  0.0412
  143POPC   H8R19089   6.228   3.285   3.825 -0.6350 -0.0047  0.2390
  143POPC   H8S19090   6.048   3.294   3.783 -0.3587 -0.4674  0.3229
  143POPC   C2919091   6.191   3.429   3.684  0.1498 -0.3881  0.2024
  143POPC   H9119092   6.174   3.427   3.576  4.1084 -0.1277 -0.5028
  143POPC  C21019093   6.227   3.545   3.743 -0.5024  0.1757 -0.4921
  143POPC  H10119094   6.257   3.634   3.685  2.1297 -0.0618  0.4635
  143POPC  C21119095   6.241   3.552   3.892  0.2272  0.2385 -0.5624
  143POPC  H11R19096   6.181   3.469   3.936  4.3285 -1.0444  2.9755
  143POPC  H11S19097   6.208   3.649   3.933  1.7070  0.9375 -0.9775
  143POPC  C21219098   6.392   3.561   3.919  0.0657 -0.4871  0.6190
  143POPC  H12R19099   6.427   3.649   3.860  0.1188 -1.6561 -1.1332
  143POPC  H12S19100   6.437   3.468   3.878 -0.4852 -0.6142  0.2975
  143POPC  C21319101   6.424   3.581   4.067  0.9482  0.0364  0.3639
  143POPC  H13R19102   6.527   3.543   4.080  0.5569 -1.1310  0.1549
  143POPC  H13S19103   6.356   3.524   4.135  0.0081  0.4510 -0.2211
  143POPC  C21419104   6.422   3.729   4.105  0.4321  0.1738 -0.1850
  143POPC  H14R19105   6.316   3.744   4.134  0.3884  0.6480 -0.5848
  143POPC  H14S19106   6.459   3.791   4.021  2.5413 -1.4532 -0.5092
  143POPC  C21519107   6.516   3.755   4.223  0.0309 -0.2316  0.2246
  143POPC  H15R19108   6.502   3.859   4.261 -2.4517 -0.6307  0.4595
  143POPC  H15S19109   6.623   3.748   4.194  0.6049  1.9466  1.6950
  143POPC  C21619110   6.495   3.660   4.341 -0.2144 -0.0468  0.3309
  143POPC  H16R19111   6.479   3.553   4.315 -0.9049  0.1162  0.0731
  143POPC  H16S19112   6.403   3.700   4.389 -0.8507 -2.0127  0.7831
  143POPC  C21719113   6.604   3.669   4.448  0.4864 -0.4814 -0.3396
  143POPC  H17R19114   6.629   3.774   4.472 -2.4134  0.6760 -2.1502
  143POPC  H17S19115   6.700   3.616   4.428  0.4735 -0.3357 -0.7894
  143POPC  C21819116   6.560   3.597   4.575 -0.4246  0.2866 -0.2142
  143POPC  H18R19117   6.638   3.598   4.655 -0.5742 -2.1853 -0.0055
  143POPC  H18S19118   6.528   3.496   4.542 -1.8823 -0.0745  2.1681
  143POPC  H18T19119   6.464   3.634   4.618 -0.3374 -0.8507  0.9984
  143POPC   C3319120   5.857   3.650   3.383 -0.3351 -0.1738  0.2172
  143POPC   H3X19121   5.747   3.662   3.369 -0.0681 -0.4694 -2.4498
  143POPC   H3Y19122   5.899   3.739   3.332 -0.6516  0.3088  0.7936
  143POPC   C3419123   5.880   3.644   3.534 -0.1922 -0.3797  0.1877
  143POPC   H4X19124   5.990   3.646   3.545  0.0024  1.0369 -1.7475
  143POPC   H4Y19125   5.852   3.549   3.586  1.3187 -1.7103 -1.3709
  143POPC   C3519126   5.821   3.773   3.589 -0.5513 -0.4540 -0.0224
  143POPC   H5X19127   5.713   3.768   3.564  0.1551  2.4435 -4.3307
  143POPC   H5Y19128   5.871   3.857   3.537 -3.3565 -0.0627 -2.2313
  143POPC   C3619129   5.841   3.783   3.741 -0.3505  0.2685 -0.0922
  143POPC   H6X19130   5.802   3.696   3.798  1.2182 -0.9405 -0.8027
  143POPC   H6Y19131   5.792   3.876   3.775 -0.2059  0.0491  0.7100
  143POPC   C3719132   5.990   3.796   3.771 -0.4931  1.0016  0.2856
  143POPC   H7X19133   6.040   3.850   3.688  1.8703 -0.6902  0.5600
  143POPC   H7Y19134   6.038   3.697   3.783 -0.3685  0.8447 -1.4924
  143POPC   C3819135   6.014   3.879   3.898 -0.2651 -0.3468  1.1386
  143POPC   H8X19136   6.009   3.812   3.986  0.3492 -2.3421 -0.3095
  143POPC   H8Y19137   5.932   3.955   3.899 -0.2531 -0.2270 -2.1360
  143POPC   C3919138   6.153   3.943   3.893 -0.1741 -0.6041  0.1630
  143POPC   H9X19139   6.165   3.994   3.795 -2.9615  0.2770  0.2269
  143POPC   H9Y19140   6.237   3.870   3.904  0.9227  0.9264  2.3704
  143POPC  C31019141   6.158   4.044   4.008  0.5804  0.2399 -0.6018
  143POPC  H10X19142   6.145   3.990   4.104 -0.9393  0.8922 -0.4182
  143POPC  H10Y19143   6.074   4.116   3.995 -1.2996 -2.3721 -3.8039
  143POPC  C31119144   6.297   4.104   4.027  0.5789 -0.0652  0.3805
  143POPC  H11X19145   6.340   4.139   3.931  0.2435  1.0558  0.6384
  143POPC  H11Y19146   6.372   4.031   4.066  2.3688  0.1683 -2.4956
  143POPC  C31219147   6.290   4.213   4.134 -0.4697  0.2203  0.0211
  143POPC  H12X19148   6.316   4.153   4.224  0.0802 -0.7146 -0.7615
  143POPC  H12Y19149   6.190   4.258   4.153 -0.0437  0.8977  0.6810
  143POPC  C31319150   6.392   4.326   4.120 -0.0081 -0.2476 -0.4174
  143POPC  H13X19151   6.348   4.410   4.062  0.5715  0.0756 -0.3887
  143POPC  H13Y19152   6.477   4.297   4.055  0.4771 -1.5531  0.7678
  143POPC  C31419153   6.445   4.370   4.257  0.3891 -0.0732 -0.6269
  143POPC  H14X19154   6.362   4.342   4.324  2.3977  3.1746  3.4134
  143POPC  H14Y19155   6.460   4.480   4.248  0.4368 -0.1694 -1.9194
  143POPC  C31519156   6.581   4.314   4.300  0.6596  0.6677 -0.5025
  143POPC  H15X19157   6.649   4.357   4.224  0.9481  2.5920  0.7995
  143POPC  H15Y19158   6.580   4.204   4.284 -0.5968  0.6375 -0.3363
  143POPC  C31619159   6.620   4.365   4.439  0.7657  0.0908 -0.3191
  143POPC  H16X19160   6.622   4.476   4.441  0.4229  0.0877  0.5518
  143POPC  H16Y19161   6.719   4.325   4.470  0.7618  0.5119  0.2382
  143POPC  H16Z19162   6.545   4.341   4.518  2.6519  0.7834  1.7215
  144POPC     N19163   0.513   2.367   1.956  0.2189  0.1095  0.0360
  144POPC   C1219164   0.481   2.331   2.099 -1.1368 -0.0427 -0.3031
  144POPC  H12A19168   0.427   2.238   2.088  3.3088 -2.8155 -0.0995
  144POPC  H12B19169   0.420   2.411   2.138  1.5590  2.0836 -0.3254
  144POPC   C1319165   0.601   2.267   1.886  0.0838  0.4210 -0.5861
  144POPC  H13A19170   0.701   2.261   1.926 -0.2108 -1.2533 -0.0207
  144POPC  H13B19171   0.557   2.169   1.901 -0.3362  0.4502 -1.5697
  144POPC  H13C19172   0.612   2.288   1.780  1.4828  3.0479  0.0462
  144POPC   C1419166   0.384   2.379   1.879  0.4262 -0.1765 -0.3606
  144POPC  H14A19173   0.336   2.282   1.889  1.8401 -0.7808  0.7235
  144POPC  H14B19174   0.319   2.454   1.922  3.4001  0.4804  3.2179
  144POPC  H14C19175   0.403   2.395   1.774  1.6564 -0.6787 -0.2185
  144POPC   C1519167   0.580   2.503   1.949  0.1026  0.1872  0.4138
  144POPC  H15A19176   0.674   2.505   2.003 -0.7900  4.7926  2.0231
  144POPC  H15B19177   0.523   2.584   1.992  1.2876  1.2109  0.0733
  144POPC  H15C19178   0.599   2.530   1.846 -1.0449 -0.9334 -0.1007
  144POPC   C1119179   0.589   2.317   2.206 -0.5213  0.0021 -0.9169
  144POPC  H11A19180   0.633   2.216   2.187  2.1641  0.6563  1.4714
  144POPC  H11B19181   0.550   2.291   2.306  1.3383  0.0636 -0.1563
  144POPC     P19182   0.845   2.377   2.192  0.3414  0.0523  0.1731
  144POPC   O1319183   0.915   2.504   2.163 -0.1084  0.2884  0.1174
  144POPC   O1419184   0.861   2.274   2.087 -0.1749  0.1898 -0.0391
  144POPC   O1219185   0.691   2.417   2.209  0.1255 -0.6776 -0.0417
  144POPC   O1119186   0.903   2.322   2.331  0.3673  0.2921  0.2571
  144POPC    C119187   1.019   2.239   2.334 -0.2942 -0.6573 -0.0433
  144POPC    HA19188   1.071   2.238   2.235 -1.1314  1.1686 -0.5182
  144POPC    HB19189   0.994   2.133   2.354 -0.9803 -0.2903  1.0972
  144POPC    C219190   1.116   2.280   2.446 -0.4682  0.3614 -0.2576
  144POPC    HS19191   1.203   2.211   2.446  0.2277  1.2177  0.8827
  144POPC   O2119192   1.054   2.282   2.575 -0.0635 -0.5917 -0.0426
  144POPC   C2119193   1.055   2.162   2.633 -0.2263 -0.7117 -0.2859
  144POPC   O2219194   1.121   2.069   2.590  0.3452 -0.5515  0.2362
  144POPC   C2219195   0.964   2.149   2.755  0.1667 -0.0039  0.0869
  144POPC   H2R19196   0.899   2.059   2.743 -2.3710  2.1260 -3.0789
  144POPC   H2S19197   0.905   2.242   2.765  0.4866  0.1279  0.7598
  144POPC    C319198   1.189   2.413   2.420  0.1693  0.1963  0.6516
  144POPC    HX19199   1.113   2.494   2.424 -1.2002 -0.9132 -1.8061
  144POPC    HY19200   1.238   2.397   2.322 -1.4543 -1.3640  0.0506
  144POPC   O3119201   1.283   2.435   2.525  0.3394 -0.0849  0.5580
  144POPC   C3119202   1.338   2.556   2.510  0.3325 -0.1655 -0.1324
  144POPC   O3219203   1.296   2.639   2.432 -0.2842 -0.2490  0.1078
  144POPC   C3219204   1.425   2.587   2.631  0.2492 -0.6968  0.0692
  144POPC   H2X19205   1.502   2.664   2.609 -0.6125  0.2764  0.4211
  144POPC   H2Y19206   1.470   2.493   2.669  2.1836  0.8247  1.6502
  144POPC   C2319207   1.036   2.149   2.890 -0.0539 -0.5009  0.2058
  144POPC   H3R19208   1.142   2.179   2.876  0.5059 -2.5276 -0.0736
  144POPC   H3S19209   1.020   2.051   2.940 -3.1301 -0.6957 -1.0578
  144POPC   C2419210   0.961   2.233   2.993  0.2805 -0.2717  0.2617
  144POPC   H4R19211   0.852   2.211   2.998  0.0911  0.1905 -1.6784
  144POPC   H4S19212   0.972   2.334   2.949 -0.9867 -1.0836 -1.9482
  144POPC   C2519213   1.024   2.211   3.131 -0.1211  0.0407  0.4951
  144POPC   H5R19214   1.131   2.228   3.105 -0.1220 -0.7366 -0.0179
  144POPC   H5S19215   1.002   2.109   3.169  1.4984 -0.7912 -0.7317
  144POPC   C2619216   1.003   2.333   3.221  0.3628  0.1245  0.4980
  144POPC   H6R19217   0.905   2.327   3.274  1.1396  0.8656  2.0624
  144POPC   H6S19218   0.995   2.417   3.149  0.0211 -0.1189  0.2509
  144POPC   C2719219   1.109   2.350   3.330  0.2074  0.2953  0.6232
  144POPC   H7R19220   1.128   2.460   3.331 -1.7743  0.7477 -2.5918
  144POPC   H7S19221   1.211   2.309   3.310 -0.0077  0.8290 -1.7376
  144POPC   C2819222   1.047   2.317   3.466 -0.7106 -0.3441  0.0499
  144POPC   H8R19223   1.039   2.207   3.482 -2.4226  0.0785  2.2519
  144POPC   H8S19224   0.946   2.363   3.479 -0.5070  0.8569 -2.3898
  144POPC   C2919225   1.135   2.369   3.575 -0.0817  0.0078 -0.6218
  144POPC   H9119226   1.227   2.311   3.594 -1.9283 -1.7011  3.8051
  144POPC  C21019227   1.095   2.468   3.656  0.4360 -0.1429 -0.1767
  144POPC  H10119228   1.147   2.493   3.749 -0.2729 -1.1152  0.4865
  144POPC  C21119229   0.972   2.554   3.651  0.3736 -0.2093  0.2143
  144POPC  H11R19230   0.882   2.497   3.682 -0.5869  1.1769 -0.0137
  144POPC  H11S19231   0.961   2.592   3.547  0.9422  3.3435  1.4122
  144POPC  C21219232   0.979   2.683   3.733 -0.3517  0.4514 -0.7466
  144POPC  H12R19233   0.996   2.682   3.843 -1.4236  0.2042 -0.5851
  144POPC  H12S19234   0.884   2.738   3.720  0.4819  1.7123 -1.7298
  144POPC  C21319235   1.095   2.779   3.707 -0.0574  0.2313 -0.2476
  144POPC  H13R19236   1.185   2.733   3.754 -0.4226 -0.1180  0.1117
  144POPC  H13S19237   1.067   2.874   3.759  0.0756 -0.8085  1.7866
  144POPC  C21419238   1.141   2.808   3.564  0.1051  0.5837 -0.1249
  144POPC  H14R19239   1.150   2.714   3.506  0.5677  0.6833 -0.2208
  144POPC  H14S19240   1.245   2.847   3.561  0.4429 -0.3812 -0.9931
  144POPC  C21519241   1.061   2.915   3.490 -0.5293  0.0479 -0.2160
  144POPC  H15R19242   0.952   2.893   3.501 -0.5531 -0.0197 -0.5960
  144POPC  H15S19243   1.087   2.935   3.384 -2.6238  0.6734 -0.6302
  144POPC  C21619244   1.076   3.054   3.552  0.4161 -0.0199 -0.2848
  144POPC  H16R19245   1.036   3.053   3.656 -1.6289 -0.9523 -1.0640
  144POPC  H16S19246   1.011   3.114   3.485  1.7243  2.0061  0.1929
  144POPC  C21719247   1.215   3.118   3.560  0.5827 -0.3855 -0.2722
  144POPC  H17R19248   1.260   3.114   3.458 -0.6101  0.2242 -0.8354
  144POPC  H17S19249   1.273   3.046   3.622 -0.2515 -1.1663 -0.3849
  144POPC  C21819250   1.226   3.253   3.630  0.9527 -0.2550 -0.5787
  144POPC  H18R19251   1.172   3.246   3.727  0.8523  0.0685 -0.6098
  144POPC  H18S19252   1.184   3.341   3.576  0.9607  0.0778 -0.0452
  144POPC  H18T19253   1.333   3.279   3.645  0.8729  0.0295 -0.5075
  144POPC   C3319254   1.329   2.633   2.741  0.2478  0.1958 -0.2963
  144POPC   H3X19255   1.237   2.669   2.690 -1.4880 -1.6639  1.4279
  144POPC   H3Y19256   1.375   2.726   2.779  2.1591  0.5876 -3.4063
  144POPC   C3419257   1.312   2.547   2.866  0.1769  0.2825 -0.2462
  144POPC   H4X19258   1.289   2.445   2.828 -1.7636  0.6682 -0.1526
  144POPC   H4Y19259   1.215   2.569   2.914 -0.0502 -0.4464 -0.3607
  144POPC   C3519260   1.428   2.555   2.966  0.3941  0.1161 -0.4840
  144POPC   H5X19261   1.449   2.662   2.988  0.6289 -0.5442  2.6401
  144POPC   H5Y19262   1.521   2.511   2.923 -0.5003 -1.6947 -0.5963
  144POPC   C3619263   1.395   2.486   3.098  0.3398  0.1998 -0.4542
  144POPC   H6X19264   1.366   2.383   3.066  0.4133 -0.5179  1.6859
  144POPC   H6Y19265   1.304   2.534   3.141  0.9920 -0.0537  1.2679
  144POPC   C3719266   1.511   2.485   3.197 -0.3521 -0.0812  0.3628
  144POPC   H7X19267   1.525   2.590   3.228  0.3929 -0.2457  0.6045
  144POPC   H7Y19268   1.602   2.462   3.137 -0.2796  0.3582  0.3060
  144POPC   C3819269   1.482   2.401   3.322 -0.7017 -0.5681 -0.0461
  144POPC   H8X19270   1.448   2.299   3.292  0.4444 -0.0431 -3.3198
  144POPC   H8Y19271   1.412   2.462   3.382  0.0242 -0.1009  0.3310
  144POPC   C3919272   1.591   2.366   3.423 -0.5438 -0.2785 -0.1182
  144POPC   H9X19273   1.675   2.324   3.364 -1.9204 -2.1161 -0.8110
  144POPC   H9Y19274   1.546   2.292   3.492 -0.7838  0.7076  0.7900
  144POPC  C31019275   1.628   2.492   3.502 -0.1408 -0.3559 -0.1804
  144POPC  H10X19276   1.546   2.536   3.562  0.5937  1.9496 -0.7930
  144POPC  H10Y19277   1.659   2.573   3.432 -1.5117 -0.0255 -0.4251
  144POPC  C31119278   1.744   2.463   3.597 -0.0132  0.2470 -0.1507
  144POPC  H11X19279   1.709   2.371   3.648  0.5195 -0.4146 -0.9751
  144POPC  H11Y19280   1.739   2.550   3.667 -2.2160 -0.1715  0.2600
  144POPC  C31219281   1.882   2.450   3.532 -0.1480 -0.1651 -0.3541
  144POPC  H12X19282   1.894   2.528   3.453 -1.3297  0.4809  0.0930
  144POPC  H12Y19283   1.890   2.358   3.471 -1.3465 -0.6172  0.1603
  144POPC  C31319284   1.995   2.455   3.634 -0.0766 -0.1923 -0.4321
  144POPC  H13X19285   2.093   2.456   3.582 -0.9774 -2.0822 -2.2053
  144POPC  H13Y19286   1.999   2.358   3.688 -0.4008  0.2837  0.4511
  144POPC  C31419287   2.005   2.568   3.737  0.3609 -0.1885 -0.4753
  144POPC  H14X19288   2.069   2.548   3.825  0.5724 -0.3933 -0.6767
  144POPC  H14Y19289   1.906   2.558   3.788 -1.0759  0.5141 -3.0171
  144POPC  C31519290   2.020   2.708   3.677 -0.3729  0.3460  0.5592
  144POPC  H15X19291   2.006   2.782   3.758 -2.4646  1.5666 -0.8562
  144POPC  H15Y19292   1.931   2.719   3.612 -0.3845 -3.8696 -0.2705
  144POPC  C31619293   2.154   2.738   3.608 -0.7502  0.5115 -0.1025
  144POPC  H16X19294   2.144   2.843   3.572 -3.1515  1.1900  2.3554
  144POPC  H16Y19295   2.168   2.664   3.526  0.1344 -0.6652  1.0878
  144POPC  H16Z19296   2.235   2.741   3.683 -0.9981 -1.0891  0.2559
  145POPC     N19297   2.011   1.074   2.412  0.2663 -0.0182  0.2100
  145POPC   C1219298   2.063   0.978   2.517 -0.3010 -0.5726 -0.0090
  145POPC  H12A19302   2.001   0.890   2.518  0.7520 -1.3203  1.0939
  145POPC  H12B19303   2.038   1.024   2.611 -0.4901 -1.6229  0.4526
  145POPC   C1319299   1.988   1.009   2.278 -0.4426  0.0728  0.2805
  145POPC  H13A19304   1.936   0.916   2.291  2.9667 -1.6845  1.9897
  145POPC  H13B19305   1.930   1.080   2.221  0.9211  1.7552  0.9040
  145POPC  H13C19306   2.083   0.976   2.238 -0.7860 -1.3532  0.6420
  145POPC   C1419300   1.873   1.118   2.456  0.4002  0.3034  0.3104
  145POPC  H14A19307   1.840   1.198   2.392 -0.8256  0.9848  1.7746
  145POPC  H14B19308   1.809   1.031   2.465 -0.8340  0.9761 -1.5384
  145POPC  H14C19309   1.885   1.166   2.552 -0.6244 -0.5598  0.8810
  145POPC   C1519301   2.095   1.199   2.403  0.0623  0.0635 -0.5734
  145POPC  H15A19310   2.104   1.254   2.495 -1.1609 -1.5613  0.5505
  145POPC  H15B19311   2.047   1.271   2.338 -1.6222  1.6754  2.3768
  145POPC  H15C19312   2.192   1.180   2.360 -0.5846 -2.4165 -1.0522
  145POPC   C1119313   2.212   0.943   2.503 -0.1645 -0.1984  0.5241
  145POPC  H11A19314   2.246   0.881   2.588  1.7052 -0.9478 -0.7550
  145POPC  H11B19315   2.259   1.044   2.507 -0.9102  0.2141 -0.9057
  145POPC     P19316   2.388   0.893   2.329  0.0202  0.0129  0.2396
  145POPC   O1319317   2.399   0.956   2.195 -0.3475  0.0049  0.2058
  145POPC   O1419318   2.428   0.751   2.330 -0.0122  0.0064  0.5238
  145POPC   O1219319   2.234   0.893   2.371  0.0031  0.7235  0.1936
  145POPC   O1119320   2.467   0.972   2.443 -0.3027  0.5329  0.1058
  145POPC    C119321   2.594   1.033   2.421  0.2272 -0.4655  0.3442
  145POPC    HA19322   2.594   1.123   2.486 -2.2957  1.4947 -2.2362
  145POPC    HB19323   2.614   1.075   2.319 -0.2608  1.1903  0.9046
  145POPC    C219324   2.695   0.932   2.477  0.4406 -0.1340  0.5639
  145POPC    HS19325   2.704   0.857   2.395 -2.1084 -0.9160  0.9569
  145POPC   O2119326   2.629   0.868   2.587  0.0971 -0.0414  0.4126
  145POPC   C2119327   2.681   0.747   2.610  0.2884 -0.0112  0.1424
  145POPC   O2219328   2.762   0.694   2.536  0.0614 -0.3678  0.1478
  145POPC   C2219329   2.620   0.683   2.734 -0.0821  0.3888  0.1668
  145POPC   H2R19330   2.509   0.689   2.737 -0.0922 -0.0995  0.7489
  145POPC   H2S19331   2.659   0.725   2.829 -0.8570 -1.7708  1.4523
  145POPC    C319332   2.832   0.989   2.514  0.4055 -0.3351  1.0128
  145POPC    HX19333   2.878   1.026   2.419 -1.2148  2.6524  1.3211
  145POPC    HY19334   2.896   0.906   2.552 -0.4571 -2.4568 -2.0033
  145POPC   O3119335   2.836   1.095   2.610  0.1154  0.5009  0.1107
  145POPC   C3119336   2.871   1.217   2.567  0.7818  0.2521 -0.0540
  145POPC   O3219337   2.858   1.256   2.452 -0.3748 -0.5735 -0.2120
  145POPC   C3219338   2.944   1.296   2.675 -0.1484  0.4182  0.4582
  145POPC   H2X19339   3.036   1.334   2.625  0.1322  2.3280  2.3669
  145POPC   H2Y19340   2.966   1.227   2.759 -1.1914  2.0583  2.1274
  145POPC   C2319341   2.648   0.534   2.746 -0.3894  0.2771 -0.4753
  145POPC   H3R19342   2.758   0.518   2.745 -0.7103 -2.2209  0.6185
  145POPC   H3S19343   2.617   0.485   2.651  1.8129 -1.8911 -0.1374
  145POPC   C2419344   2.572   0.450   2.849  0.1964  0.5781  0.2034
  145POPC   H4R19345   2.603   0.345   2.834 -0.7941  0.0032  2.0649
  145POPC   H4S19346   2.462   0.457   2.838  0.2499  1.1176 -0.0262
  145POPC   C2519347   2.614   0.501   2.987 -0.1280 -0.1807  0.5810
  145POPC   H5R19348   2.597   0.611   2.991 -1.4377 -0.3355 -0.3752
  145POPC   H5S19349   2.722   0.498   3.010 -0.0705  1.6978  0.5986
  145POPC   C2619350   2.529   0.447   3.103 -0.7428 -0.2362  0.1094
  145POPC   H6R19351   2.558   0.341   3.115  0.3716  0.1173  0.6901
  145POPC   H6S19352   2.422   0.448   3.073 -0.1903 -1.1148 -1.9165
  145POPC   C2719353   2.562   0.515   3.237 -0.3377  0.6197 -0.4169
  145POPC   H7R19354   2.554   0.625   3.235  1.8646  0.7910 -1.3028
  145POPC   H7S19355   2.664   0.495   3.276 -0.4539  0.0986 -0.3755
  145POPC   C2819356   2.487   0.459   3.358  0.3743  0.3200 -0.1142
  145POPC   H8R19357   2.524   0.356   3.378 -0.6883  0.0748  0.6059
  145POPC   H8S19358   2.382   0.443   3.328  0.6022  2.0144 -1.8935
  145POPC   C2919359   2.494   0.556   3.473 -0.3133  0.2634 -0.0263
  145POPC   H9119360   2.485   0.657   3.429 -0.3568 -1.0512 -3.1985
  145POPC  C21019361   2.524   0.521   3.599 -0.0667 -0.5325 -0.3020
  145POPC  H10119362   2.526   0.604   3.671 -3.3828 -1.0668  0.4898
  145POPC  C21119363   2.520   0.383   3.656 -0.0043 -0.2262  0.4438
  145POPC  H11R19364   2.626   0.355   3.676  0.3241 -1.4386 -2.6729
  145POPC  H11S19365   2.496   0.311   3.575  2.2689 -0.4295 -0.1065
  145POPC  C21219366   2.421   0.367   3.771 -0.1277 -0.2542  0.3333
  145POPC  H12R19367   2.329   0.422   3.741 -0.6482 -0.9384  0.6534
  145POPC  H12S19368   2.449   0.415   3.867 -2.0680 -0.5590  1.0855
  145POPC  C21319369   2.384   0.220   3.792 -0.6150 -0.2067 -0.1784
  145POPC  H13R19370   2.410   0.175   3.694 -2.9408  2.2842 -2.0163
  145POPC  H13S19371   2.275   0.206   3.804 -0.7193  1.1083  0.4791
  145POPC  C21419372   2.455   0.133   3.897 -0.1317  0.2745 -0.1029
  145POPC  H14R19373   2.427   0.026   3.889 -1.6593  0.7112 -0.9341
  145POPC  H14S19374   2.442   0.185   3.994 -2.6096  1.7824 -1.1920
  145POPC  C21519375   2.605   0.129   3.870  0.0221  0.6049  0.6926
  145POPC  H15R19376   2.659   0.225   3.882  1.5961 -0.4749  2.6699
  145POPC  H15S19377   2.638   0.113   3.765 -0.6526 -1.5625  0.7780
  145POPC  C21619378   2.683   0.041   3.968  0.1485 -0.0989 -0.0338
  145POPC  H16R19379   2.791   0.039   3.939  0.4608  0.1775  1.0995
  145POPC  H16S19380   2.641   7.901   3.963 -1.3752  0.5195 -0.9190
  145POPC  C21719381   2.678   0.090   4.113  0.3204 -0.5749  0.1346
  145POPC  H17R19382   2.578   0.092   4.161 -0.5187  1.5446 -1.6161
  145POPC  H17S19383   2.721   0.192   4.121  0.4771 -0.4874 -1.5546
  145POPC  C21819384   2.761   7.958   4.199  0.4934  0.2349  0.9065
  145POPC  H18R19385   2.740   7.852   4.171  0.6552  0.6015 -0.6333
  145POPC  H18S19386   2.733   0.006   4.306 -3.2740 -0.7299  0.0556
  145POPC  H18T19387   2.870   0.010   4.181  0.3120  2.4623  1.4092
  145POPC   C3319388   2.863   1.415   2.727 -0.0762  0.4870  0.4113
  145POPC   H3X19389   2.823   1.480   2.645 -1.5588 -0.2736  0.5209
  145POPC   H3Y19390   2.938   1.479   2.778  1.3899 -2.1725  1.6921
  145POPC   C3419391   2.760   1.361   2.826 -0.1619 -0.0854  0.0118
  145POPC   H4X19392   2.817   1.302   2.901  0.9512  0.9040 -0.0267
  145POPC   H4Y19393   2.697   1.289   2.770 -0.9556 -0.8571  1.8932
  145POPC   C3519394   2.672   1.468   2.890 -0.3213 -0.2331  0.0391
  145POPC   H5X19395   2.578   1.484   2.833 -0.1016 -0.2880 -0.3386
  145POPC   H5Y19396   2.724   1.564   2.911 -2.4627  0.9119  0.3346
  145POPC   C3619397   2.632   1.420   3.029  0.1515  0.1881  0.3226
  145POPC   H6X19398   2.722   1.416   3.094 -1.2967 -1.8268  2.2999
  145POPC   H6Y19399   2.594   1.316   3.024  0.4292  0.0614  0.8225
  145POPC   C3719400   2.531   1.516   3.093 -0.4551 -0.3961  0.2422
  145POPC   H7X19401   2.433   1.492   3.045  0.0604  0.8991 -1.4715
  145POPC   H7Y19402   2.553   1.622   3.071  1.1221 -0.9438 -0.9180
  145POPC   C3819403   2.512   1.501   3.244  0.1990  0.0939  0.3737
  145POPC   H8X19404   2.476   1.399   3.269  0.4245  0.0030  0.3249
  145POPC   H8Y19405   2.425   1.567   3.268  0.4997  0.2283  1.0966
  145POPC   C3919406   2.632   1.550   3.325  0.7180 -0.1965 -0.2222
  145POPC   H9X19407   2.665   1.651   3.293  2.9424 -0.7041  0.3409
  145POPC   H9Y19408   2.713   1.477   3.303 -0.0690 -0.8895 -0.8652
  145POPC  C31019409   2.612   1.540   3.476  0.1408 -0.5555 -0.3192
  145POPC  H10X19410   2.577   1.439   3.505 -1.4707  0.0502 -0.1185
  145POPC  H10Y19411   2.531   1.611   3.504 -0.0360 -0.7698 -0.2901
  145POPC  C31119412   2.738   1.559   3.561 -0.1237  0.4353 -0.1432
  145POPC  H11X19413   2.764   1.667   3.562 -0.2238  0.5003 -2.0271
  145POPC  H11Y19414   2.823   1.498   3.526  2.0711  1.9138  2.3761
  145POPC  C31219415   2.713   1.514   3.705  0.0871  0.4270 -0.1085
  145POPC  H12X19416   2.799   1.553   3.763 -1.3951  0.0264  2.3988
  145POPC  H12Y19417   2.713   1.403   3.709 -1.8119  0.4696  1.8618
  145POPC  C31319418   2.595   1.577   3.778  0.4218  1.1839 -0.2202
  145POPC  H13X19419   2.503   1.521   3.749  0.4691  0.5963  0.7590
  145POPC  H13Y19420   2.592   1.685   3.750  1.3895  1.0144 -0.9824
  145POPC  C31419421   2.604   1.578   3.931  0.1627  0.5869 -0.1987
  145POPC  H14X19422   2.660   1.663   3.976 -0.1630  0.1952  0.9641
  145POPC  H14Y19423   2.672   1.494   3.957  0.4766  0.9261  0.0744
  145POPC  C31519424   2.468   1.565   4.000  0.2343  0.8066 -0.0163
  145POPC  H15X19425   2.440   1.459   3.982  0.2410  1.5516 -5.0956
  145POPC  H15Y19426   2.394   1.618   3.936  1.8017  1.9976 -0.8735
  145POPC  C31619427   2.460   1.594   4.150 -0.6216 -0.5233  0.2054
  145POPC  H16X19428   2.534   1.534   4.206  0.8967 -0.6367 -1.8771
  145POPC  H16Y19429   2.368   1.556   4.198  0.7986 -3.1858  0.8608
  145POPC  H16Z19430   2.471   1.703   4.172  1.6416 -0.6050 -0.4573
  146POPC     N19431   7.682   7.786   1.609  0.2609  0.0534  0.0933
  146POPC   C1219432   7.730   7.721   1.737  0.0850 -0.1183  0.0715
  146POPC  H12A19436   7.755   7.618   1.721 -0.7440 -0.4529  0.8937
  146POPC  H12B19437   7.644   7.717   1.801  0.0939 -2.0364 -0.0132
  146POPC   C1319433   7.706   7.935   1.592  0.2437  0.0232 -0.2023
  146POPC  H13A19438   7.811   7.957   1.599 -0.2624  2.1142  1.3668
  146POPC  H13B19439   7.653   0.017   1.509 -0.2089 -0.5990 -0.2710
  146POPC  H13C19440   7.667   0.025   1.678 -0.9520  0.6621 -1.0836
  146POPC   C1419434   7.766   7.726   1.498 -0.0985 -0.3718  0.0526
  146POPC  H14A19441   7.872   7.733   1.515 -0.0709 -0.9242  0.1298
  146POPC  H14B19442   7.726   7.629   1.475  0.7517 -0.0514 -2.9523
  146POPC  H14C19443   7.754   7.794   1.415 -2.8843  0.6414  1.2143
  146POPC   C1519435   7.534   7.758   1.600  0.2184  0.4767 -0.6043
  146POPC  H15A19444   7.489   7.781   1.695 -0.6507 -3.8996  0.1826
  146POPC  H15B19445   7.521   7.652   1.582  0.9333  0.1942  0.4920
  146POPC  H15C19446   7.491   7.824   1.527 -0.7652 -1.4864 -1.8472
  146POPC   C1119447   7.857   7.788   1.789  0.1544 -0.0930 -0.1235
  146POPC  H11A19448   7.891   7.740   1.884  0.9648  2.4260  0.9092
  146POPC  H11B19449   7.833   7.895   1.807 -1.6997 -0.6077  0.5099
  146POPC     P19450   0.115   7.873   1.693 -0.1053 -0.2840 -0.5401
  146POPC   O1319451   0.064   0.045   1.658 -0.3250 -0.1256  0.2343
  146POPC   O1419452   0.222   7.814   1.609  0.3562 -0.5218  0.2089
  146POPC   O1219453   7.961   7.763   1.694  0.0972 -0.5386 -0.0699
  146POPC   O1119454   0.164   7.880   1.845 -0.2813 -0.2413 -0.4857
  146POPC    C119455   0.261   7.785   1.888 -0.1463  0.2649  0.3426
  146POPC    HA19456   0.363   7.829   1.879  0.6055 -1.7483 -1.3863
  146POPC    HB19457   0.262   7.701   1.815  1.4310  0.3497  0.2351
  146POPC    C219458   0.251   7.741   2.035  0.2755 -0.2780  0.2121
  146POPC    HS19459   0.341   7.680   2.058 -1.1942 -2.8379 -0.6930
  146POPC   O2119460   0.127   7.678   2.067  0.2829 -0.3527  0.0913
  146POPC   C2119461   0.136   7.550   2.030 -0.2949 -0.3049 -0.2201
  146POPC   O2219462   0.229   7.490   1.979 -0.1053 -0.1155 -0.0974
  146POPC   C2219463   0.009   7.480   2.076 -0.2102 -0.8249 -0.7802
  146POPC   H2R19464   7.937   7.401   2.005 -0.1758 -0.9211 -0.7108
  146POPC   H2S19465   7.896   7.562   2.077  1.8323  1.1308 -1.6520
  146POPC    C319466   0.258   7.859   2.134 -0.2404 -0.2693  0.2371
  146POPC    HX19467   0.191   7.941   2.102  0.0266  0.1852  0.8365
  146POPC    HY19468   0.355   7.912   2.128 -1.1833  1.3131 -1.7081
  146POPC   O3119469   0.233   7.828   2.271 -0.3180  0.3891  0.3756
  146POPC   C3119470   0.328   7.760   2.337 -0.0006  0.4111 -0.0600
  146POPC   O3219471   0.436   7.724   2.292  0.1898  0.4414  0.3723
  146POPC   C3219472   0.290   7.771   2.484  0.0720 -0.6234  0.0383
  146POPC   H2X19473   0.217   7.690   2.505  0.3302 -0.7887  0.3003
  146POPC   H2Y19474   0.262   7.879   2.491  0.5508 -0.3922 -1.4538
  146POPC   C2319475   0.032   7.425   2.217 -0.2060  0.1655 -0.3981
  146POPC   H3R19476   0.127   7.368   2.219 -0.5091 -0.3890 -1.5368
  146POPC   H3S19477   7.914   7.349   2.226 -0.3746  0.3305 -0.0996
  146POPC   C2419478   0.007   7.520   2.335  0.0023 -0.0385 -0.1907
  146POPC   H4R19479   7.879   7.582   2.314  0.6602  1.0642  0.0707
  146POPC   H4S19480   0.095   7.586   2.347  1.0793 -1.5716  0.5632
  146POPC   C2519481   7.957   7.437   2.463  0.5477  0.1544 -0.0079
  146POPC   H5R19482   0.086   7.375   2.473  1.7776  1.6256 -1.4358
  146POPC   H5S19483   7.869   7.369   2.451  0.0598  0.2561  2.6437
  146POPC   C2619484   7.937   7.520   2.591  0.1341  0.1725 -0.0819
  146POPC   H6R19485   7.862   7.597   2.564 -0.1776 -0.6262 -1.5522
  146POPC   H6S19486   0.079   7.557   2.608  0.4533  0.4026 -2.0689
  146POPC   C2719487   7.904   7.438   2.716 -0.0739  0.0672 -0.2069
  146POPC   H7R19488   0.018   7.358   2.723  1.1407  1.1219 -0.6627
  146POPC   H7S19489   7.806   7.387   2.708 -0.3541  0.3802  1.1752
  146POPC   C2819490   7.916   7.515   2.848 -0.3185 -0.0767 -0.1006
  146POPC   H8R19491   7.855   7.608   2.852 -2.6090 -1.3890 -2.6395
  146POPC   H8S19492   0.061   7.543   2.850 -0.9096  2.4055  0.0753
  146POPC   C2919493   7.889   7.426   2.966  0.8428 -0.0895  0.1591
  146POPC   H9119494   7.886   7.320   2.938 -1.7454  0.4796 -1.8731
  146POPC  C21019495   7.871   7.476   3.089 -0.5852  0.5980 -0.3270
  146POPC  H10119496   7.843   7.409   3.172  1.9016 -0.2874 -0.1610
  146POPC  C21119497   7.885   7.617   3.140 -0.0270  0.4695 -0.1201
  146POPC  H11R19498   7.900   7.688   3.056  0.9337  1.6316  1.0189
  146POPC  H11S19499   0.005   7.623   3.213  0.3478  1.1494 -0.5480
  146POPC  C21219500   7.761   7.657   3.221 -0.1497  0.2827 -0.2146
  146POPC  H12R19501   7.770   7.605   3.319  1.8910  1.9495  0.5438
  146POPC  H12S19502   7.671   7.620   3.168 -2.6321  1.8064  2.8284
  146POPC  C21319503   7.756   7.809   3.242 -0.4731  0.2276  0.1127
  146POPC  H13R19504   7.779   7.864   3.148 -0.0671 -2.6368 -1.5573
  146POPC  H13S19505   7.835   7.831   3.317 -0.0335 -0.3694 -0.1656
  146POPC  C21419506   7.633   7.867   3.311 -0.3532  0.5336  0.0668
  146POPC  H14R19507   7.546   7.885   3.244 -1.5590 -0.3491  1.3834
  146POPC  H14S19508   7.663   0.008   3.340 -2.7159  1.4569 -0.6463
  146POPC  C21519509   7.585   7.784   3.430  0.0194 -0.1576 -0.2607
  146POPC  H15R19510   7.671   7.778   3.500 -1.4701  1.8292  1.8322
  146POPC  H15S19511   7.547   7.685   3.399 -0.2306 -0.0786 -0.2095
  146POPC  C21619512   7.477   7.853   3.514 -0.0341 -0.0751 -0.3956
  146POPC  H16R19513   7.407   7.898   3.440 -0.0796 -2.3289 -1.7349
  146POPC  H16S19514   7.516   7.937   3.577 -1.9786 -0.3521  1.2476
  146POPC  C21719515   7.404   7.755   3.606  0.2115 -0.1522 -0.2818
  146POPC  H17R19516   7.471   7.729   3.691 -0.3029  1.6845  0.7199
  146POPC  H17S19517   7.368   7.663   3.556  0.3530  1.4323 -3.4266
  146POPC  C21819518   7.287   7.828   3.672  0.7120  0.0877  0.3534
  146POPC  H18R19519   7.228   7.754   3.730  0.7496 -0.7372 -0.6352
  146POPC  H18S19520   7.210   7.841   3.593  0.2628 -3.0477  0.2325
  146POPC  H18T19521   7.310   7.922   3.726  0.2198  0.6566 -0.4193
  146POPC   C3319522   0.416   7.762   2.570  0.3160  0.4343 -0.1953
  146POPC   H3X19523   0.477   7.855   2.574 -0.9836  1.2588  0.6892
  146POPC   H3Y19524   0.480   7.687   2.518 -1.7641 -0.8154 -1.0296
  146POPC   C3419525   0.376   7.714   2.709  0.3644 -0.0734 -0.3556
  146POPC   H4X19526   0.476   7.683   2.748  0.4818  0.4935 -0.2049
  146POPC   H4Y19527   0.317   7.620   2.694 -2.6555  2.1996 -3.3031
  146POPC   C3519528   0.309   7.807   2.811  0.0934  0.2818 -0.8601
  146POPC   H5X19529   0.205   7.811   2.771 -0.7648 -2.1401  1.0152
  146POPC   H5Y19530   0.353   7.908   2.818  1.2045 -0.2790  0.4758
  146POPC   C3619531   0.312   7.748   2.952  0.1728 -0.1906 -1.0586
  146POPC   H6X19532   0.246   7.658   2.953 -0.8109  0.5083 -2.1174
  146POPC   H6Y19533   0.277   7.821   3.027 -0.3702 -0.5739 -0.9359
  146POPC   C3719534   0.454   7.721   3.003 -0.0990  0.2922 -0.0481
  146POPC   H7X19535   0.516   7.806   2.969 -0.7197  1.4181  1.5367
  146POPC   H7Y19536   0.497   7.629   2.959  0.8145  0.0636  1.3040
  146POPC   C3819537   0.461   7.696   3.154 -0.0656 -0.4516 -0.1707
  146POPC   H8X19538   0.554   7.639   3.174  1.4034  1.0528 -2.4068
  146POPC   H8Y19539   0.368   7.639   3.175  0.1230  0.1151  2.4318
  146POPC   C3919540   0.461   7.824   3.238 -0.3994 -0.2551 -0.4662
  146POPC   H9X19541   0.354   7.853   3.245 -0.7021 -1.1387 -1.3835
  146POPC   H9Y19542   0.518   7.900   3.182 -0.3365  1.7351  2.1875
  146POPC  C31019543   0.516   7.805   3.380 -0.6285 -0.2746 -0.3789
  146POPC  H10X19544   0.482   7.711   3.429  0.1628 -1.0131 -1.2145
  146POPC  H10Y19545   0.482   7.888   3.445 -0.8128 -1.1633  0.6829
  146POPC  C31119546   0.668   7.815   3.394 -0.6720 -0.0325 -0.0770
  146POPC  H11X19547   0.699   7.922   3.397 -0.8975  0.1187 -2.3622
  146POPC  H11Y19548   0.717   7.772   3.304  1.1569 -1.0292  1.3566
  146POPC  C31219549   0.740   7.748   3.511 -0.2062  0.4432 -0.0860
  146POPC  H12X19550   0.751   7.641   3.481  3.5915  0.8207 -0.2459
  146POPC  H12Y19551   0.679   7.779   3.599  1.8339 -1.4230  2.0714
  146POPC  C31319552   0.882   7.799   3.536 -0.3016  0.7197 -0.1139
  146POPC  H13X19553   0.931   7.730   3.607 -2.6936 -0.8431  0.0761
  146POPC  H13Y19554   0.871   7.899   3.582  0.6802  0.8666 -0.2008
  146POPC  C31419555   0.978   7.822   3.419 -0.4191 -0.1305 -0.3849
  146POPC  H14X19556   0.956   7.914   3.361 -0.1420 -0.6477 -1.3094
  146POPC  H14Y19557   0.986   7.732   3.355  0.7463 -0.5677  0.3587
  146POPC  C31519558   1.122   7.858   3.457 -0.5086 -0.1824  0.0104
  146POPC  H15X19559   1.160   7.784   3.530 -3.6396 -0.9213  0.9801
  146POPC  H15Y19560   1.119   7.957   3.509 -2.1336  0.5732 -1.4679
  146POPC  C31619561   1.221   7.869   3.341 -0.2719 -0.0829  0.2212
  146POPC  H16X19562   1.324   7.884   3.380 -0.6942  1.1421  0.9134
  146POPC  H16Y19563   1.208   7.958   3.276  0.7944 -0.0928 -0.0060
  146POPC  H16Z19564   1.225   7.773   3.286  0.6262  0.7896 -1.2816
  147POPC     N19565   5.728   1.209   1.921 -0.3692  0.3196 -0.3257
  147POPC   C1219566   5.720   1.225   2.071 -0.2897 -0.6018 -0.2172
  147POPC  H12A19570   5.751   1.325   2.098  0.2178 -0.3170 -1.7962
  147POPC  H12B19571   5.796   1.157   2.106 -3.5856 -3.2919  2.1473
  147POPC   C1319567   5.720   1.062   1.884 -0.2376  0.3329 -0.4053
  147POPC  H13A19572   5.747   1.043   1.781 -0.7230  1.3330 -0.7311
  147POPC  H13B19573   5.792   1.011   1.946  1.5101  1.5819 -1.3516
  147POPC  H13C19574   5.630   1.015   1.918 -0.6302  0.0454 -1.7989
  147POPC   C1419568   5.609   1.271   1.853 -0.3117  0.4196 -0.3353
  147POPC  H14A19575   5.604   1.245   1.748  2.9367  3.0972 -1.2424
  147POPC  H14B19576   5.520   1.221   1.887 -1.0721  0.3645 -2.3622
  147POPC  H14C19577   5.623   1.376   1.872  2.3343  0.3444 -1.6203
  147POPC   C1519569   5.857   1.262   1.864  0.1174 -0.6147 -0.1050
  147POPC  H15A19578   5.936   1.198   1.901  0.6530 -0.5124 -1.0612
  147POPC  H15B19579   5.871   1.352   1.921  1.8865 -1.8753  1.5219
  147POPC  H15C19580   5.858   1.288   1.759 -0.5962  2.7047  0.6753
  147POPC   C1119581   5.593   1.185   2.146 -0.3347  0.0071  0.0347
  147POPC  H11A19582   5.521   1.266   2.121 -0.0919  0.1951 -0.0658
  147POPC  H11B19583   5.632   1.174   2.249  0.5727 -0.4994 -0.3630
  147POPC     P19584   5.419   1.016   2.212 -0.3529 -0.1073 -0.1442
  147POPC   O1319585   5.366   0.882   2.176 -0.0562 -0.3363  0.2556
  147POPC   O1419586   5.319   1.125   2.217 -0.3780 -0.1317 -0.1185
  147POPC   O1219587   5.541   1.055   2.116  0.1301 -0.2647  0.4032
  147POPC   O1119588   5.492   1.005   2.354 -0.2547 -0.4569 -0.2205
  147POPC    C119589   5.598   0.912   2.378  0.0420  0.0283  0.3710
  147POPC    HA19590   5.698   0.957   2.362 -0.0024  0.0430  0.1257
  147POPC    HB19591   5.590   0.830   2.303 -0.6115 -0.6845  1.2148
  147POPC    C219592   5.599   0.846   2.517  0.1789 -0.3785  0.1797
  147POPC    HS19593   5.549   0.748   2.503 -1.1827  0.2223  0.7859
  147POPC   O2119594   5.534   0.929   2.613 -0.2725 -0.2128 -0.2686
  147POPC   C2119595   5.464   0.864   2.706  0.3341 -0.1954  0.2007
  147POPC   O2219596   5.455   0.743   2.723 -0.2652 -0.0600  0.8824
  147POPC   C2219597   5.390   0.964   2.793  0.8768  0.2141  0.1957
  147POPC   H2R19598   5.319   1.026   2.735 -0.3355 -0.4859  0.9069
  147POPC   H2S19599   5.460   1.032   2.847  0.3653  1.7775 -1.0795
  147POPC    C319600   5.742   0.817   2.566  0.4024  0.7732  0.2283
  147POPC    HX19601   5.788   0.918   2.570  1.1745  0.5344 -1.8233
  147POPC    HY19602   5.786   0.755   2.486  0.2778 -0.5709  1.1942
  147POPC   O3119603   5.746   0.759   2.696  0.3155  0.1849 -0.0302
  147POPC   C3119604   5.734   0.626   2.695 -0.1397  0.2259 -0.4554
  147POPC   O3219605   5.738   0.559   2.594  0.0789 -0.0851 -0.2429
  147POPC   C3219606   5.715   0.573   2.837 -0.7861  0.0325 -0.6130
  147POPC   H2X19607   5.611   0.606   2.859 -1.1960 -0.5825 -1.5783
  147POPC   H2Y19608   5.792   0.617   2.904 -1.5566 -0.7995  0.8263
  147POPC   C2319609   5.295   0.902   2.897  0.1165 -0.0939 -0.6760
  147POPC   H3R19610   5.360   0.843   2.965 -0.4696 -0.4998 -0.4738
  147POPC   H3S19611   5.225   0.827   2.854  0.5406  0.2226 -1.9460
  147POPC   C2419612   5.232   1.003   2.992 -0.3695 -0.6404 -0.4147
  147POPC   H4R19613   5.129   0.970   3.014  0.0489 -1.8450 -0.2281
  147POPC   H4S19614   5.235   1.103   2.943  0.6368 -0.5700 -0.2357
  147POPC   C2519615   5.299   1.015   3.129 -0.1317 -0.2018 -0.5679
  147POPC   H5R19616   5.243   1.096   3.181  1.0593  2.0662 -2.6921
  147POPC   H5S19617   5.399   1.059   3.108 -0.0669  0.4744  1.0347
  147POPC   C2619618   5.304   0.886   3.212  0.4033  0.4074  0.3573
  147POPC   H6R19619   5.390   0.888   3.282 -1.0837  0.8226  2.1989
  147POPC   H6S19620   5.318   0.793   3.153 -0.5188  1.6598 -1.8820
  147POPC   C2719621   5.176   0.871   3.294 -0.2025 -0.1779 -0.6819
  147POPC   H7R19622   5.109   0.799   3.243 -2.1790 -1.1885  3.1823
  147POPC   H7S19623   5.121   0.967   3.290  1.3666  0.8703  1.5627
  147POPC   C2819624   5.189   0.847   3.445 -0.3745  0.4869 -0.5581
  147POPC   H8R19625   5.252   0.919   3.501 -0.4568 -0.4017  0.6954
  147POPC   H8S19626   5.249   0.753   3.446  0.9401  1.3152 -1.4241
  147POPC   C2919627   5.068   0.829   3.533  0.0301 -0.0101 -0.0989
  147POPC   H9119628   4.974   0.849   3.480  0.3485  1.5399 -0.1084
  147POPC  C21019629   5.071   0.787   3.660 -0.0783 -0.6498 -0.3062
  147POPC  H10119630   4.977   0.764   3.711  1.7501 -2.2380  2.4887
  147POPC  C21119631   5.188   0.750   3.746  0.3944  0.2844 -0.5375
  147POPC  H11R19632   5.276   0.789   3.691 -0.5127  1.8466 -0.9187
  147POPC  H11S19633   5.203   0.640   3.734  1.3685  0.3540 -0.0190
  147POPC  C21219634   5.184   0.781   3.896 -0.4198 -0.0452 -0.4899
  147POPC  H12R19635   5.267   0.731   3.949 -0.5858  1.1175  0.8987
  147POPC  H12S19636   5.089   0.738   3.936 -1.8690  3.5710  0.1275
  147POPC  C21319637   5.206   0.930   3.923  0.0505 -0.2082  0.0277
  147POPC  H13R19638   5.131   0.980   3.858 -0.9264 -0.8921  0.6116
  147POPC  H13S19639   5.312   0.963   3.914  0.1764 -0.4054  0.7456
  147POPC  C21419640   5.179   0.949   4.072  0.3341 -0.0129  0.0550
  147POPC  H14R19641   5.245   0.888   4.137  0.3586  2.6333  2.6181
  147POPC  H14S19642   5.072   0.921   4.079  0.0982  0.8633  0.0221
  147POPC  C21519643   5.181   1.098   4.106  0.2063  0.0008 -0.0011
  147POPC  H15R19644   5.144   1.149   4.014  3.2949 -0.7500 -1.7260
  147POPC  H15S19645   5.287   1.131   4.111  1.1792 -3.2301  1.8837
  147POPC  C21619646   5.105   1.141   4.231 -0.1689 -0.2647 -0.1375
  147POPC  H16R19647   5.135   1.071   4.313  3.0084  0.4962 -0.5921
  147POPC  H16S19648   4.995   1.137   4.214  0.0211  1.3139 -1.8235
  147POPC  C21719649   5.132   1.287   4.269 -0.1905 -0.4217  0.4955
  147POPC  H17R19650   5.096   1.348   4.184  0.4983 -0.5203  0.1265
  147POPC  H17S19651   5.241   1.307   4.278 -0.0249 -0.0026 -1.9923
  147POPC  C21819652   5.060   1.331   4.396 -0.4327 -0.5679  0.4073
  147POPC  H18R19653   5.111   1.420   4.438  0.6945 -0.8188 -0.4115
  147POPC  H18S19654   5.062   1.251   4.473  0.5734 -0.4791  0.4836
  147POPC  H18T19655   4.953   1.339   4.366 -0.1639 -3.0803 -1.3796
  147POPC   C3319656   5.720   0.420   2.828 -0.0492  0.0197 -0.0670
  147POPC   H3X19657   5.670   0.378   2.738  0.9465 -0.1105 -0.5614
  147POPC   H3Y19658   5.674   0.378   2.920  0.9220 -1.0827 -0.0873
  147POPC   C3419659   5.860   0.362   2.817 -0.0964 -0.1655  0.2995
  147POPC   H4X19660   5.899   0.371   2.713  0.8429 -1.3759  0.5300
  147POPC   H4Y19661   5.859   0.251   2.819 -1.0274 -0.3028 -4.3187
  147POPC   C3519662   5.967   0.398   2.921  0.1787  0.2055 -0.1123
  147POPC   H5X19663   5.988   0.507   2.916 -1.4105  0.5069 -0.6961
  147POPC   H5Y19664   6.058   0.339   2.899 -0.7634 -1.6738  0.8675
  147POPC   C3619665   5.933   0.358   3.065 -0.1259  0.4187 -0.1221
  147POPC   H6X19666   5.956   0.251   3.084 -0.2920  0.2502 -0.8516
  147POPC   H6Y19667   5.823   0.367   3.080 -0.0801  0.2997  0.2868
  147POPC   C3719668   6.005   0.446   3.167  0.0762 -0.0364  0.1309
  147POPC   H7X19669   5.970   0.551   3.159 -0.4135  0.0603  3.0135
  147POPC   H7Y19670   6.113   0.456   3.142 -0.2653  2.9235 -0.3663
  147POPC   C3819671   5.994   0.399   3.312  0.6546 -0.2886  0.0962
  147POPC   H8X19672   6.029   0.295   3.331 -0.7358 -1.0142 -1.1456
  147POPC   H8Y19673   5.889   0.398   3.348  1.2479  1.5908  1.9414
  147POPC   C3919674   6.068   0.487   3.412  0.1389  0.2290  0.0225
  147POPC   H9X19675   6.022   0.588   3.399  2.2955  1.3854  1.1181
  147POPC   H9Y19676   6.166   0.516   3.368 -0.2668  1.9416  0.1799
  147POPC  C31019677   6.064   0.433   3.555 -0.1060 -0.3959 -0.2188
  147POPC  H10X19678   6.139   0.486   3.618  0.4558 -0.3600 -0.9060
  147POPC  H10Y19679   6.113   0.333   3.558  0.7656  0.0868  2.2576
  147POPC  C31119680   5.930   0.436   3.627 -0.0452  0.4200 -0.1311
  147POPC  H11X19681   5.849   0.399   3.560 -1.9103  0.2739  2.1574
  147POPC  H11Y19682   5.914   0.545   3.641  2.1395  0.6080  0.9516
  147POPC  C31219683   5.935   0.365   3.762 -0.2801  0.0125 -0.3346
  147POPC  H12X19684   6.026   0.402   3.814 -0.4280  2.0604 -1.4771
  147POPC  H12Y19685   5.935   0.254   3.760  0.9406  0.0348 -2.0956
  147POPC  C31319686   5.817   0.413   3.848  0.0299  0.2477 -0.0362
  147POPC  H13X19687   5.843   0.519   3.869  0.5912  0.6231 -2.4352
  147POPC  H13Y19688   5.816   0.367   3.949 -2.5005 -1.5932 -0.8521
  147POPC  C31419689   5.679   0.402   3.782 -0.1370  0.1532  0.3291
  147POPC  H14X19690   5.656   0.294   3.778  0.6218 -0.0412  0.9560
  147POPC  H14Y19691   5.686   0.441   3.678  1.1991 -1.6039 -0.2716
  147POPC  C31519692   5.578   0.482   3.864 -0.0222  0.2963  0.3319
  147POPC  H15X19693   5.619   0.585   3.861  2.0195 -0.5244 -1.1465
  147POPC  H15Y19694   5.564   0.446   3.968 -2.2021  1.2220  0.4019
  147POPC  C31619695   5.439   0.479   3.799  0.0955  0.5130  0.0666
  147POPC  H16X19696   5.441   0.523   3.697  0.4917  3.5774  1.3243
  147POPC  H16Y19697   5.365   0.546   3.849 -1.4527 -0.0114 -1.4785
  147POPC  H16Z19698   5.396   0.379   3.779  0.4775  0.2561  0.5106
  148POPC     N19699   5.225   6.858   2.134  0.0084 -0.3175 -0.1624
  148POPC   C1219700   5.244   7.007   2.120  0.2793 -0.3568 -0.2047
  148POPC  H12A19704   5.155   7.054   2.081  0.2600  0.0726  0.3475
  148POPC  H12B19705   5.314   7.015   2.038 -0.4970  0.6482 -0.7856
  148POPC   C1319701   5.202   6.798   1.998 -0.8531 -0.3905  0.0127
  148POPC  H13A19706   5.277   6.841   1.934  0.7358  0.5704  2.4380
  148POPC  H13B19707   5.214   6.691   2.000  1.9882 -0.0872  0.4448
  148POPC  H13C19708   5.100   6.821   1.968  0.3338 -0.1602 -4.2101
  148POPC   C1419702   5.343   6.785   2.193  0.0045 -0.0535  0.1765
  148POPC  H14A19709   5.374   6.847   2.276 -1.1608 -2.0553  2.1855
  148POPC  H14B19710   5.312   6.685   2.218  0.6243 -0.2839  0.0336
  148POPC  H14C19711   5.432   6.776   2.132 -0.9369 -1.4224 -1.0244
  148POPC   C1519703   5.101   6.837   2.219 -0.0464 -0.4014 -0.2622
  148POPC  H15A19712   5.126   6.854   2.323  2.2757 -1.2197 -0.6352
  148POPC  H15B19713   5.073   6.734   2.207 -3.1717 -0.0015  2.8710
  148POPC  H15C19714   5.015   6.897   2.195 -0.9368 -1.8042 -0.6267
  148POPC   C1119715   5.311   7.075   2.240 -0.5015  0.0152  0.0270
  148POPC  H11A19716   5.333   7.181   2.218  3.2740 -0.7348 -0.1724
  148POPC  H11B19717   5.409   7.027   2.264 -1.1689 -1.1748  0.4263
  148POPC     P19718   5.110   7.179   2.377 -0.3086  0.3134  0.1451
  148POPC   O1319719   4.987   7.109   2.420 -0.1886  0.1236  0.1807
  148POPC   O1419720   5.097   7.253   2.249 -0.1069 -0.1761 -0.1616
  148POPC   O1219721   5.230   7.075   2.358 -0.5652  0.0472 -0.0173
  148POPC   O1119722   5.161   7.284   2.485  0.6585 -0.2836  0.2805
  148POPC    C119723   5.161   7.242   2.622  0.4384 -0.3019  0.2747
  148POPC    HA19724   5.266   7.251   2.656  0.4309  0.7262  0.0313
  148POPC    HB19725   5.141   7.134   2.639 -3.1428  0.6447  2.7872
  148POPC    C219726   5.071   7.327   2.713 -0.0550 -0.0564 -0.4353
  148POPC    HS19727   5.115   7.328   2.815  0.4128 -0.5218 -0.6349
  148POPC   O2119728   4.937   7.277   2.723 -0.2605  0.5590 -0.1311
  148POPC   C2119729   4.927   7.171   2.803 -0.0091  0.4122 -0.2959
  148POPC   O2219730   5.019   7.129   2.872 -0.2510  0.5620  0.1189
  148POPC   C2219731   4.794   7.102   2.775  0.1411 -0.1066  0.2510
  148POPC   H2R19732   4.818   7.006   2.725  1.0820  0.1906  0.1186
  148POPC   H2S19733   4.735   7.165   2.705  0.9317 -0.6372 -0.9036
  148POPC    C319734   5.065   7.472   2.663 -0.2275  0.0361 -0.1514
  148POPC    HX19735   5.012   7.494   2.568  0.3753  0.1675 -0.4534
  148POPC    HY19736   5.165   7.513   2.637 -0.2543 -0.6011 -1.3174
  148POPC   O3119737   5.026   7.565   2.764  0.1075 -0.0867  0.0900
  148POPC   C3119738   4.895   7.592   2.759  0.0068 -0.4177  0.7209
  148POPC   O3219739   4.815   7.544   2.681 -0.0064  0.5230  0.1367
  148POPC   C3219740   4.871   7.705   2.857  0.0630  0.2108  0.0183
  148POPC   H2X19741   4.855   7.800   2.801 -0.0569 -0.4953 -1.1467
  148POPC   H2Y19742   4.952   7.714   2.932 -0.3352 -1.2980  0.6316
  148POPC   C2319743   4.719   7.076   2.906 -0.3099  0.4599  0.1065
  148POPC   H3R19744   4.737   7.151   2.987 -0.8565  3.0430 -2.0937
  148POPC   H3S19745   4.759   6.982   2.949 -2.5135 -1.0385 -1.0437
  148POPC   C2419746   4.569   7.068   2.881 -0.3251  0.1461  0.3057
  148POPC   H4R19747   4.554   7.001   2.793 -0.8255  0.3615  0.2233
  148POPC   H4S19748   4.529   7.167   2.851  0.3699  0.0008 -1.1628
  148POPC   C2519749   4.498   6.997   2.997  0.1250 -0.3936  0.2543
  148POPC   H5R19750   4.502   7.059   3.089  1.7012 -0.2077  0.0738
  148POPC   H5S19751   4.554   6.904   3.020 -2.4039 -2.3615 -1.2743
  148POPC   C2619752   4.357   6.948   2.964  0.1528 -0.1340 -0.2650
  148POPC   H6R19753   4.306   6.911   3.056 -1.0859  0.6144 -0.6415
  148POPC   H6S19754   4.360   6.857   2.900  0.4691 -0.2821 -0.0413
  148POPC   C2719755   4.262   7.041   2.889  0.1159 -0.2254 -0.3322
  148POPC   H7R19756   4.180   6.972   2.861 -0.7487  1.3801 -1.8461
  148POPC   H7S19757   4.307   7.084   2.797  1.8846 -2.8557 -0.7337
  148POPC   C2819758   4.216   7.161   2.973  0.7493  0.0437 -0.3683
  148POPC   H8R19759   4.190   7.130   3.076  1.4185  0.4570 -0.0725
  148POPC   H8S19760   4.120   7.197   2.932 -0.3358  0.1536  2.2026
  148POPC   C2919761   4.307   7.280   2.989 -0.2824  0.7924 -0.0240
  148POPC   H9119762   4.303   7.339   2.896 -0.4270 -0.9304 -1.1294
  148POPC  C21019763   4.371   7.324   3.098 -0.1048  0.6115 -0.0540
  148POPC  H10119764   4.436   7.412   3.092  1.5721 -0.7365 -2.6701
  148POPC  C21119765   4.361   7.263   3.235  0.0731  0.6197 -0.0380
  148POPC  H11R19766   4.465   7.240   3.267 -0.0443  1.2792  0.8390
  148POPC  H11S19767   4.303   7.170   3.220  0.2081  0.5745 -0.2893
  148POPC  C21219768   4.292   7.353   3.338 -0.4514 -0.0996  0.2384
  148POPC  H12R19769   4.255   7.301   3.429  0.5397 -0.5458  0.3897
  148POPC  H12S19770   4.201   7.392   3.287  0.1140 -0.0790 -0.7638
  148POPC  C21319771   4.399   7.450   3.386 -0.6396  0.4206 -0.3714
  148POPC  H13R19772   4.438   7.507   3.299 -1.7852 -1.2578 -2.0255
  148POPC  H13S19773   4.481   7.388   3.429 -0.1039  0.9581 -0.6071
  148POPC  C21419774   4.354   7.546   3.497  0.3060 -0.1185  0.4952
  148POPC  H14R19775   4.340   7.484   3.588  0.8003 -0.9813 -0.0094
  148POPC  H14S19776   4.269   7.599   3.449 -0.6864 -0.2283  2.1090
  148POPC  C21519777   4.466   7.645   3.530  0.1656  0.5411 -0.9716
  148POPC  H15R19778   4.496   7.705   3.441  0.4928  1.1529 -0.4499
  148POPC  H15S19779   4.557   7.589   3.558 -0.2314  0.2069 -0.3420
  148POPC  C21619780   4.411   7.748   3.628  0.7668  0.1648 -0.2366
  148POPC  H16R19781   4.306   7.774   3.604  0.3193  1.9698  3.2893
  148POPC  H16S19782   4.481   7.834   3.617  0.4951  0.2029 -1.7325
  148POPC  C21719783   4.409   7.688   3.769  0.1820  0.2786 -0.1978
  148POPC  H17R19784   4.515   7.672   3.796 -0.4665  0.2918  2.4456
  148POPC  H17S19785   4.354   7.593   3.784  1.8461 -1.1291 -2.6013
  148POPC  C21819786   4.368   7.791   3.874  0.0417 -0.0571  0.0753
  148POPC  H18R19787   4.369   7.750   3.978  1.6482  1.6065  0.7474
  148POPC  H18S19788   4.263   7.816   3.852  0.1637  1.7614  1.4389
  148POPC  H18T19789   4.436   7.879   3.866  1.1535 -0.7402  1.7182
  148POPC   C3319790   4.739   7.684   2.932 -0.1397  0.1791 -0.3484
  148POPC   H3X19791   4.664   7.657   2.855  2.0980 -0.1967 -2.4776
  148POPC   H3Y19792   4.723   7.787   2.970  1.1989  0.1835  0.2341
  148POPC   C3419793   4.733   7.586   3.049 -0.5688 -0.2505 -0.7283
  148POPC   H4X19794   4.626   7.561   3.063 -0.3641 -1.9430 -1.9847
  148POPC   H4Y19795   4.761   7.643   3.140 -0.7324  2.5244 -2.3436
  148POPC   C3519796   4.802   7.450   3.039  0.2759  0.1126  0.0536
  148POPC   H5X19797   4.802   7.426   2.930 -0.9617  1.3761 -0.2329
  148POPC   H5Y19798   4.725   7.379   3.078  1.1587 -0.1223  1.4095
  148POPC   C3619799   4.941   7.436   3.102  0.2458  0.1277  0.1217
  148POPC   H6X19800   4.989   7.534   3.120  0.2973  0.2844 -0.8136
  148POPC   H6Y19801   5.013   7.375   3.043  0.6881  0.5392  0.2330
  148POPC   C3719802   4.930   7.348   3.226  0.0311  0.1474  0.1182
  148POPC   H7X19803   4.870   7.257   3.204 -3.0767  1.7397  1.6330
  148POPC   H7Y19804   4.888   7.409   3.309  2.0090 -1.2642  2.2288
  148POPC   C3819805   5.065   7.296   3.277 -0.1857 -0.6396 -0.1112
  148POPC   H8X19806   5.118   7.388   3.307 -0.8452 -0.5408  0.7749
  148POPC   H8Y19807   5.121   7.248   3.194  1.0985  1.1906 -0.3130
  148POPC   C3919808   5.054   7.196   3.392  0.0981 -0.3934  0.1301
  148POPC   H9X19809   4.983   7.114   3.368 -0.8215 -0.1260  1.8616
  148POPC   H9Y19810   5.009   7.254   3.476  0.0018 -0.4393  0.1106
  148POPC  C31019811   5.188   7.139   3.439  0.0131 -0.2659  0.5360
  148POPC  H10X19812   5.276   7.206   3.435  0.0084 -0.3324 -2.4351
  148POPC  H10Y19813   5.225   7.061   3.368 -0.4396  0.8912 -0.9952
  148POPC  C31119814   5.186   7.071   3.576 -0.2067 -0.1664  0.5816
  148POPC  H11X19815   5.201   7.161   3.640 -0.8401 -1.2595  2.2978
  148POPC  H11Y19816   5.281   7.014   3.586 -0.2440 -0.3166  0.0700
  148POPC  C31219817   5.067   6.988   3.623 -0.6208 -0.1053 -0.3434
  148POPC  H12X19818   5.045   6.905   3.552 -1.7526  0.3494 -0.5250
  148POPC  H12Y19819   4.979   7.055   3.624 -0.2161  0.4829 -2.5035
  148POPC  C31319820   5.089   6.931   3.764  0.2379  0.3488 -0.2890
  148POPC  H13X19821   5.162   6.848   3.759 -1.1875 -0.9252 -0.5305
  148POPC  H13Y19822   4.991   6.894   3.802  0.8034  1.4118  2.2475
  148POPC  C31419823   5.131   7.034   3.868  0.3937  0.0143 -0.0197
  148POPC  H14X19824   5.072   7.125   3.844  1.5002  1.1218  1.3556
  148POPC  H14Y19825   5.238   7.062   3.854 -0.2461  3.5851  1.5510
  148POPC  C31519826   5.105   6.984   4.010 -0.2394  0.5088  0.0414
  148POPC  H15X19827   5.154   6.884   4.016  2.3042  1.7689  1.3344
  148POPC  H15Y19828   4.997   6.973   4.031 -0.0395 -0.0042  0.8344
  148POPC  C31619829   5.162   7.071   4.122 -0.3667  0.0125  0.4906
  148POPC  H16X19830   5.105   7.165   4.136 -0.4768 -0.0079  0.1711
  148POPC  H16Y19831   5.269   7.102   4.111 -0.2915 -0.1885  0.6371
  148POPC  H16Z19832   5.150   7.013   4.217 -0.4000 -1.4229 -0.3743
  149POPC     N19833   1.425   3.106   2.044  0.1488 -0.4993  0.1865
  149POPC   C1219834   1.487   3.145   2.176 -0.4602  0.6335  0.1468
  149POPC  H12A19838   1.543   3.059   2.208 -0.3499  0.1864 -1.2448
  149POPC  H12B19839   1.414   3.162   2.255 -0.0741  1.7237  0.2811
  149POPC   C1319835   1.376   3.224   1.963 -0.6833 -0.7785  0.2759
  149POPC  H13A19840   1.451   3.301   1.968 -1.8929  0.5832 -1.7085
  149POPC  H13B19841   1.363   3.204   1.858 -0.9241 -0.5470  0.2601
  149POPC  H13C19842   1.281   3.262   1.999  0.2370  0.7083  1.1691
  149POPC   C1419836   1.528   3.031   1.964 -0.1208 -0.3385 -0.3132
  149POPC  H14A19843   1.613   3.094   1.940 -0.3176 -0.0550 -0.2660
  149POPC  H14B19844   1.566   2.948   2.021  0.2635 -1.2956 -1.9472
  149POPC  H14C19845   1.478   3.000   1.874 -0.2899 -0.4884 -0.1676
  149POPC   C1519837   1.305   3.015   2.061 -0.2369 -0.0206  0.0610
  149POPC  H15A19846   1.346   2.933   2.118  1.2597  1.2455  0.8669
  149POPC  H15B19847   1.280   2.995   1.958  0.9815  3.1720 -0.9181
  149POPC  H15C19848   1.224   3.063   2.113 -1.4051 -1.6507 -0.2149
  149POPC   C1119849   1.584   3.263   2.176  0.5471 -0.1988  0.0142
  149POPC  H11A19850   1.645   3.231   2.263 -1.3615 -2.1956  0.6650
  149POPC  H11B19851   1.534   3.358   2.201 -1.5522 -1.7778  1.9138
  149POPC     P19852   1.798   3.369   2.076 -0.1017 -0.1472  0.4767
  149POPC   O1319853   1.742   3.505   2.093 -0.1402 -0.1401  0.2993
  149POPC   O1419854   1.895   3.356   1.965 -0.3312  0.2082  0.2356
  149POPC   O1219855   1.665   3.281   2.059 -0.0904 -0.0004 -0.3964
  149POPC   O1119856   1.868   3.331   2.214  0.6382 -0.5297 -0.0016
  149POPC    C119857   1.921   3.199   2.220 -0.3291 -0.9464 -0.5852
  149POPC    HA19858   2.011   3.194   2.154  0.8553  1.3520  0.8243
  149POPC    HB19859   1.840   3.126   2.198 -3.7722  1.8001  2.4329
  149POPC    C219860   1.955   3.176   2.368  0.1699  0.3408 -0.4911
  149POPC    HS19861   1.993   3.071   2.371  2.6053  1.2336  0.4446
  149POPC   O2119862   1.841   3.197   2.452  0.2088 -0.3664 -0.2508
  149POPC   C2119863   1.848   3.129   2.566  0.1958  0.1761  0.0782
  149POPC   O2219864   1.934   3.049   2.602 -0.4676 -0.4681  0.2331
  149POPC   C2219865   1.729   3.183   2.643  0.0945  0.1678 -0.0741
  149POPC   H2R19866   1.630   3.191   2.594 -0.9826  1.5813  2.2167
  149POPC   H2S19867   1.753   3.289   2.667  2.7283 -0.4080 -0.0479
  149POPC    C319868   2.069   3.268   2.414  0.2796 -0.0656  0.0504
  149POPC    HX19869   2.036   3.372   2.396  1.3740  0.2668 -0.0295
  149POPC    HY19870   2.162   3.267   2.355  1.6629  2.3022  2.1156
  149POPC   O3119871   2.102   3.246   2.552 -0.2853  0.4913  0.2775
  149POPC   C3119872   2.196   3.155   2.575 -0.3361  0.3318 -0.1333
  149POPC   O3219873   2.251   3.084   2.493 -0.7264  0.3292 -0.3951
  149POPC   C3219874   2.216   3.149   2.726  0.1154  0.2631 -0.1950
  149POPC   H2X19875   2.130   3.109   2.784 -2.1095  2.0694 -2.1189
  149POPC   H2Y19876   2.244   3.252   2.758  0.5314 -0.0581  0.4951
  149POPC   C2319877   1.710   3.104   2.773  0.1131 -0.2965 -0.3532
  149POPC   H3R19878   1.653   3.164   2.847  1.7869 -1.0925  1.6155
  149POPC   H3S19879   1.806   3.093   2.828  1.1616 -0.2973 -2.1357
  149POPC   C2419880   1.643   2.968   2.758 -0.9265  0.2215 -0.4531
  149POPC   H4R19881   1.698   2.898   2.692 -0.4670  1.1707 -1.0795
  149POPC   H4S19882   1.540   2.980   2.716 -1.4930 -3.7181 -0.4345
  149POPC   C2519883   1.646   2.892   2.891  0.3225  0.3304 -0.4126
  149POPC   H5R19884   1.745   2.909   2.937  0.2030  2.0416 -0.7325
  149POPC   H5S19885   1.618   2.790   2.859  0.8725 -0.5788  1.9262
  149POPC   C2619886   1.541   2.945   2.990  0.1762 -0.0529 -0.3605
  149POPC   H6R19887   1.445   2.915   2.945 -0.0002  0.1832 -0.1414
  149POPC   H6S19888   1.548   3.056   2.997  0.5102 -0.1365  0.8069
  149POPC   C2719889   1.555   2.880   3.127  0.1186  0.4860 -0.0966
  149POPC   H7R19890   1.647   2.928   3.168  1.1163 -0.9907 -0.5803
  149POPC   H7S19891   1.576   2.772   3.109  2.4848  1.1438 -1.4363
  149POPC   C2819892   1.436   2.899   3.221  0.1880 -0.4612  0.1862
  149POPC   H8R19893   1.340   2.851   3.191 -0.9771  1.7769  0.2407
  149POPC   H8S19894   1.408   3.006   3.223  1.1226 -0.2332  1.4924
  149POPC   C2919895   1.461   2.851   3.362  0.3769 -0.4203  0.1669
  149POPC   H9119896   1.429   2.748   3.386  0.8241 -0.6776 -0.3244
  149POPC  C21019897   1.515   2.917   3.464  0.0636  0.0282  0.0411
  149POPC  H10119898   1.512   2.893   3.572 -1.0596  0.6815  0.1663
  149POPC  C21119899   1.575   3.055   3.455  0.4039 -0.1324 -0.1416
  149POPC  H11R19900   1.504   3.129   3.498  1.0011  0.3148  0.0751
  149POPC  H11S19901   1.580   3.089   3.350 -1.2004 -1.3564 -0.6314
  149POPC  C21219902   1.701   3.052   3.542  0.2834 -0.1907  0.0336
  149POPC  H12R19903   1.747   3.153   3.532 -1.4804  0.4564 -1.7696
  149POPC  H12S19904   1.776   2.989   3.489  0.4517  0.6248 -0.7254
  149POPC  C21319905   1.684   3.014   3.689 -0.0730 -0.4183 -0.0678
  149POPC  H13R19906   1.782   3.042   3.733  0.0238 -0.3286 -0.3378
  149POPC  H13S19907   1.668   2.904   3.701 -1.1639  0.0080  2.6820
  149POPC  C21419908   1.568   3.086   3.759  0.1392 -0.2372  0.0959
  149POPC  H14R19909   1.479   3.054   3.701 -1.0027  1.8182  0.6920
  149POPC  H14S19910   1.580   3.196   3.762 -2.1248  0.0452 -0.3486
  149POPC  C21519911   1.561   3.044   3.906  0.2354  0.1831  0.2204
  149POPC  H15R19912   1.661   3.062   3.951 -0.0531  1.7336  0.2695
  149POPC  H15S19913   1.549   2.934   3.903 -2.5244  0.4419  0.5119
  149POPC  C21619914   1.444   3.110   3.980 -0.3777  0.0274 -0.6017
  149POPC  H16R19915   1.342   3.080   3.949 -0.8764 -1.0311  1.9998
  149POPC  H16S19916   1.462   3.219   3.964  1.4162 -0.3567 -1.3374
  149POPC  C21719917   1.442   3.081   4.130  0.1263 -0.1210 -0.6236
  149POPC  H17R19918   1.372   3.152   4.178 -0.8071 -2.5897  1.8418
  149POPC  H17S19919   1.542   3.097   4.177  0.3589 -0.4198 -1.0022
  149POPC  C21819920   1.383   2.945   4.168  0.2998  0.0461  0.2542
  149POPC  H18R19921   1.395   2.926   4.277 -0.9162 -0.4697  0.3047
  149POPC  H18S19922   1.446   2.872   4.113  1.6487  0.3907  1.2996
  149POPC  H18T19923   1.276   2.929   4.141  0.7881 -2.5220 -0.2833
  149POPC   C3319924   2.326   3.046   2.753 -0.2838 -0.0579  0.2192
  149POPC   H3X19925   2.422   3.079   2.708 -0.6091  1.0107  0.2986
  149POPC   H3Y19926   2.300   2.953   2.698  1.1633  0.1511 -0.8529
  149POPC   C3419927   2.363   3.005   2.896 -0.8327 -0.6513  0.1929
  149POPC   H4X19928   2.440   2.925   2.890  0.8920  0.9433  0.4690
  149POPC   H4Y19929   2.277   2.957   2.947 -1.5587  1.7585  1.3005
  149POPC   C3519930   2.409   3.120   2.986 -0.6143 -0.5143 -0.0917
  149POPC   H5X19931   2.317   3.171   3.022  1.4501  1.4600  2.5129
  149POPC   H5Y19932   2.477   3.190   2.932 -0.6786  0.0172  0.5077
  149POPC   C3619933   2.494   3.066   3.101 -0.4856  0.1575  0.1311
  149POPC   H6X19934   2.577   3.014   3.049  0.0049  1.4199 -0.3758
  149POPC   H6Y19935   2.429   3.003   3.165  0.0131 -0.7746 -0.2720
  149POPC   C3719936   2.543   3.192   3.173  0.2425  0.1887 -0.4059
  149POPC   H7X19937   2.459   3.261   3.196  0.7856  0.8515 -0.4113
  149POPC   H7Y19938   2.597   3.255   3.100  2.7463 -0.2003  1.0601
  149POPC   C3819939   2.621   3.157   3.300 -0.6078  0.4284  0.1843
  149POPC   H8X19940   2.684   3.238   3.343 -2.6171  1.7181  0.7828
  149POPC   H8Y19941   2.691   3.080   3.262 -0.6616  0.4087  0.1228
  149POPC   C3919942   2.537   3.097   3.414 -0.2265 -0.2033  0.1338
  149POPC   H9X19943   2.610   3.059   3.488 -1.4112 -0.0023  1.4126
  149POPC   H9Y19944   2.482   3.008   3.376  0.1840 -0.0351 -0.8659
  149POPC  C31019945   2.428   3.187   3.473  0.0791  0.2780 -0.0292
  149POPC  H10X19946   2.381   3.135   3.559  0.8388  1.2250  0.9789
  149POPC  H10Y19947   2.355   3.188   3.390 -0.1973 -0.2439  0.2052
  149POPC  C31119948   2.472   3.328   3.513 -0.0388  0.3532 -0.1654
  149POPC  H11X19949   2.503   3.378   3.419  1.2225 -3.3821 -1.8687
  149POPC  H11Y19950   2.554   3.325   3.588 -0.1524  1.6667  0.0203
  149POPC  C31219951   2.365   3.409   3.585  0.3584 -0.0569  0.8952
  149POPC  H12X19952   2.333   3.362   3.680  0.2062 -0.0845  0.8299
  149POPC  H12Y19953   2.288   3.437   3.510  1.4571 -2.4373 -1.1999
  149POPC  C31319954   2.438   3.541   3.609  0.3642  0.0482  0.3075
  149POPC  H13X19955   2.493   3.576   3.519  3.0691  0.9401  2.2089
  149POPC  H13Y19956   2.518   3.521   3.684 -0.0504  0.4406  0.8620
  149POPC  C31419957   2.357   3.654   3.674 -0.1323 -0.2729  0.2439
  149POPC  H14X19958   2.302   3.615   3.762  0.0225 -0.6655  0.1708
  149POPC  H14Y19959   2.283   3.689   3.598 -1.0520 -0.4762  1.0429
  149POPC  C31519960   2.444   3.769   3.724 -0.4413  0.3807 -0.6976
  149POPC  H15X19961   2.486   3.811   3.630  0.0006  0.8367 -0.2958
  149POPC  H15Y19962   2.534   3.746   3.786 -0.6621  1.8229  0.1791
  149POPC  C31619963   2.369   3.885   3.789  0.3465  0.0945  0.7450
  149POPC  H16X19964   2.419   3.981   3.763 -0.3135  0.2716  0.1169
  149POPC  H16Y19965   2.373   3.873   3.899  0.5298 -3.0858  0.4479
  149POPC  H16Z19966   2.266   3.902   3.751  0.5508  3.2271  1.4538
  150POPC     N19967   0.690   1.430   2.283  0.1090  0.0492  0.7725
  150POPC   C1219968   0.834   1.463   2.312  0.2234  0.0165  0.2355
  150POPC  H12A19972   0.891   1.479   2.222 -1.4191 -0.3511 -0.8962
  150POPC  H12B19973   0.884   1.371   2.340  0.8829  0.5146  0.7001
  150POPC   C1319969   0.609   1.541   2.220 -0.1626 -0.3804  0.3685
  150POPC  H13A19974   0.657   1.562   2.126  1.4793  1.2501  1.5475
  150POPC  H13B19975   0.509   1.511   2.191  0.1169 -0.0093 -1.0298
  150POPC  H13C19976   0.624   1.623   2.288 -1.5010  0.4453 -0.3177
  150POPC   C1419970   0.699   1.327   2.174  0.0226  1.0543 -0.1904
  150POPC  H14A19977   0.602   1.294   2.137 -0.3135  0.3917  1.2547
  150POPC  H14B19978   0.747   1.363   2.084  0.0802  1.5543  0.0397
  150POPC  H14C19979   0.741   1.239   2.221 -2.2297 -0.5699 -1.0767
  150POPC   C1519971   0.613   1.376   2.402 -0.4657 -0.1895  0.2912
  150POPC  H15A19980   0.529   1.316   2.369  0.6622 -0.1269 -2.9489
  150POPC  H15B19981   0.574   1.457   2.461 -0.2027  1.1442 -1.3064
  150POPC  H15C19982   0.678   1.318   2.466  0.8834 -0.2619 -1.1036
  150POPC   C1119983   0.869   1.571   2.415 -0.2325  0.3300  0.0624
  150POPC  H11A19984   0.979   1.580   2.420 -0.2949  0.3490  1.8049
  150POPC  H11B19985   0.847   1.530   2.516  1.2340 -0.2784  0.1451
  150POPC     P19986   0.823   1.812   2.491  0.0476  0.4103  0.0580
  150POPC   O1319987   0.742   1.932   2.458  0.1046  0.2073 -0.8483
  150POPC   O1419988   0.966   1.831   2.524  0.1617  0.2137 -0.3161
  150POPC   O1219989   0.796   1.691   2.390 -0.5743  0.2086  0.4672
  150POPC   O1119990   0.768   1.748   2.626  0.4536  0.1026  0.0775
  150POPC    C119991   0.634   1.700   2.637  0.5075 -0.1130 -0.2110
  150POPC    HA19992   0.632   1.636   2.728  0.7710 -0.3871 -0.3940
  150POPC    HB19993   0.602   1.628   2.558  1.4341 -1.8924  1.0079
  150POPC    C219994   0.528   1.808   2.663  0.0307 -0.7630  0.5751
  150POPC    HS19995   0.497   1.852   2.566 -1.4960 -1.4877  0.7122
  150POPC   O2119996   0.596   1.904   2.745 -0.4341 -0.2121  0.3162
  150POPC   C2119997   0.527   2.018   2.743  0.0659  0.0845 -0.0821
  150POPC   O2219998   0.421   2.034   2.684  0.1370  0.1252 -0.1980
  150POPC   C2219999   0.594   2.101   2.852  0.0311  0.5161 -0.3864
  150POPC   H2R20000   0.697   2.134   2.829  0.1759 -0.9396 -1.8782
  150POPC   H2S20001   0.601   2.034   2.941  0.4189 -0.9187 -1.4689
  150POPC    C320002   0.409   1.750   2.741 -0.8115 -0.2838 -0.3433
  150POPC    HX20003   0.391   1.647   2.703  0.7930 -0.7933  0.2263
  150POPC    HY20004   0.317   1.811   2.727 -1.0713 -0.5976 -0.0095
  150POPC   O3120005   0.432   1.758   2.882 -0.4336  0.0314 -0.4206
  150POPC   C3120006   0.453   1.640   2.940 -0.2432  0.1457 -0.2578
  150POPC   O3220007   0.456   1.530   2.886 -0.2732 -0.3085  0.6492
  150POPC   C3220008   0.508   1.679   3.077 -0.1443 -0.3981 -0.1408
  150POPC   H2X20009   0.426   1.706   3.147  1.1205  1.0425  0.7859
  150POPC   H2Y20010   0.581   1.763   3.074 -0.4893 -0.1374 -2.1804
  150POPC   C2320011   0.504   2.220   2.884 -0.3078  0.0928  0.2561
  150POPC   H3R20012   0.403   2.182   2.911 -1.2839  2.6430  0.4092
  150POPC   H3S20013   0.496   2.279   2.790  0.0418  0.9684  0.7614
  150POPC   C2420014   0.556   2.296   3.006 -0.5194  0.4948  0.0981
  150POPC   H4R20015   0.490   2.383   3.026 -0.0926  1.2266 -1.6155
  150POPC   H4S20016   0.652   2.345   2.982 -0.7691  1.2468  0.5980
  150POPC   C2520017   0.565   2.212   3.134  0.1524  0.1793 -0.1585
  150POPC   H5R20018   0.581   2.286   3.216  0.7670 -0.4023  0.2549
  150POPC   H5S20019   0.650   2.141   3.134 -1.5734 -1.9212  1.2117
  150POPC   C2620020   0.443   2.127   3.169  0.3549  0.1311  0.4425
  150POPC   H6R20021   0.421   2.064   3.079  1.2879 -1.2404  1.1560
  150POPC   H6S20022   0.356   2.196   3.174  0.0495 -0.2986  1.0602
  150POPC   C2720023   0.451   2.038   3.293 -0.3014 -0.1102  0.3102
  150POPC   H7R20024   0.531   1.962   3.283  0.4967  0.9983 -2.0555
  150POPC   H7S20025   0.358   1.977   3.305 -1.6506  1.9018  0.4258
  150POPC   C2820026   0.461   2.110   3.428 -0.0147  0.3781  0.0274
  150POPC   H8R20027   0.550   2.176   3.435 -0.2191  1.0234 -2.6970
  150POPC   H8S20028   0.489   2.027   3.495  0.7341  0.6273  0.0316
  150POPC   C2920029   0.333   2.184   3.457 -0.2135  0.1121 -0.1664
  150POPC   H9120030   0.334   2.289   3.425 -2.4304  0.2005 -0.0291
  150POPC  C21020031   0.241   2.148   3.547 -0.2593  0.3339 -0.1240
  150POPC  H10120032   0.160   2.219   3.573 -2.0330 -1.3950 -0.7498
  150POPC  C21120033   0.234   2.018   3.622  0.5897  0.2932 -0.1173
  150POPC  H11R20034   0.338   1.980   3.636 -1.1046 -4.7762 -0.4650
  150POPC  H11S20035   0.191   1.936   3.560  0.6099  0.4270 -0.3066
  150POPC  C21220036   0.161   2.041   3.755 -0.9344 -0.6591 -0.7735
  150POPC  H12R20037   0.068   2.100   3.740 -0.5038  0.8435  2.1170
  150POPC  H12S20038   0.224   2.112   3.813 -0.9386 -0.3889 -1.0974
  150POPC  C21320039   0.125   1.919   3.840 -0.2372 -0.3201  0.0179
  150POPC  H13R20040   0.044   1.869   3.783 -0.2128 -0.2649 -0.0657
  150POPC  H13S20041   0.092   1.949   3.941 -1.0593 -1.0663 -0.0267
  150POPC  C21420042   0.236   1.815   3.858  0.0537 -0.0709 -0.3256
  150POPC  H14R20043   0.287   1.790   3.763 -0.0443 -1.7735  0.0594
  150POPC  H14S20044   0.180   1.725   3.890  1.5249 -0.8565  0.1050
  150POPC  C21520045   0.352   1.856   3.950  0.3389  0.0226 -0.7258
  150POPC  H15R20046   0.308   1.874   4.050 -1.2347 -0.3134 -1.3416
  150POPC  H15S20047   0.403   1.943   3.905 -1.5435  0.4298 -2.1164
  150POPC  C21620048   0.458   1.746   3.961 -0.2139 -0.4004  0.4396
  150POPC  H16R20049   0.499   1.729   3.859  2.0853  2.1474  0.8720
  150POPC  H16S20050   0.418   1.656   4.012  1.7404 -0.9299  1.1002
  150POPC  C21720051   0.586   1.796   4.028 -0.1302  0.5382 -0.4216
  150POPC  H17R20052   0.558   1.813   4.134 -0.9718 -0.2593 -0.5134
  150POPC  H17S20053   0.621   1.888   3.976 -1.3421  1.7215  0.8118
  150POPC  C21820054   0.706   1.702   4.034 -0.8771 -0.4408 -0.8038
  150POPC  H18R20055   0.782   1.744   4.103 -0.6530  1.1207 -1.9751
  150POPC  H18S20056   0.743   1.682   3.931  1.0327  2.9272 -0.8510
  150POPC  H18T20057   0.671   1.604   4.072  2.7737 -2.4520 -2.3258
  150POPC   C3320058   0.595   1.569   3.139  0.0434  0.0853  0.4521
  150POPC   H3X20059   0.684   1.581   3.074 -1.7352 -0.8667 -2.2342
  150POPC   H3Y20060   0.552   1.468   3.124  0.6618 -0.0564 -0.4605
  150POPC   C3420061   0.619   1.575   3.290 -0.1551 -0.0050  0.4864
  150POPC   H4X20062   0.688   1.493   3.319  2.2909  2.6418  2.3740
  150POPC   H4Y20063   0.525   1.536   3.333  0.8797 -1.0408  1.8290
  150POPC   C3520064   0.676   1.707   3.340  0.6138 -0.0784 -0.1863
  150POPC   H5X20065   0.615   1.796   3.312 -0.1043 -1.5970 -3.5300
  150POPC   H5Y20066   0.780   1.719   3.301  0.5597  1.6035  0.1428
  150POPC   C3620067   0.692   1.711   3.493 -1.3772  0.3682  0.0162
  150POPC   H6X20068   0.771   1.642   3.529 -2.3238 -0.1431  1.1467
  150POPC   H6Y20069   0.595   1.684   3.541 -1.0764 -0.2397  0.2788
  150POPC   C3720070   0.748   1.842   3.547 -1.0640  0.2701 -0.0729
  150POPC   H7X20071   0.692   1.929   3.508 -0.4434  0.6307 -0.1773
  150POPC   H7Y20072   0.851   1.856   3.508  0.3547 -3.4186  2.1052
  150POPC   C3820073   0.755   1.853   3.700 -1.4159  0.2501 -0.0559
  150POPC   H8X20074   0.811   1.778   3.760  0.8218  2.8280  1.1775
  150POPC   H8Y20075   0.652   1.838   3.739 -0.1985 -1.0802  2.7805
  150POPC   C3920076   0.796   1.991   3.753 -0.1561  0.1957 -0.8713
  150POPC   H9X20077   0.752   1.999   3.855  3.0649  3.3164  0.3684
  150POPC   H9Y20078   0.741   2.065   3.692  0.5532  1.0530 -0.4849
  150POPC  C31020079   0.948   2.006   3.762 -0.2066  0.3400 -0.1956
  150POPC  H10X20080   0.985   1.963   3.666 -0.1792 -0.8443  0.3439
  150POPC  H10Y20081   0.998   1.958   3.848 -0.1984  0.9995  0.1679
  150POPC  C31120082   0.976   2.156   3.773 -0.1004  0.3292 -0.3049
  150POPC  H11X20083   0.917   2.203   3.691  1.5973  0.0689 -1.6877
  150POPC  H11Y20084   1.085   2.163   3.755 -0.3328 -0.3336 -2.0610
  150POPC  C31220085   0.939   2.232   3.901 -0.6100 -0.3782 -0.0289
  150POPC  H12X20086   0.833   2.204   3.912 -0.5535 -0.0535  1.4827
  150POPC  H12Y20087   0.936   2.337   3.867 -1.5862 -1.2974 -2.8757
  150POPC  C31320088   1.031   2.189   4.016 -0.1972  0.2647 -0.1172
  150POPC  H13X20089   1.136   2.212   3.986  0.9375  1.3321  4.3777
  150POPC  H13Y20090   1.015   2.079   4.012  0.8519  0.0750  0.5628
  150POPC  C31420091   1.008   2.248   4.155  0.3939 -0.2542  0.2047
  150POPC  H14X20092   1.001   2.359   4.152  0.4417 -0.1546  2.6458
  150POPC  H14Y20093   1.086   2.218   4.229  1.2254  1.5721  0.1147
  150POPC  C31520094   0.877   2.195   4.212  0.3170 -0.2692  0.0151
  150POPC  H15X20095   0.857   2.086   4.209  0.4247 -0.2581 -1.0305
  150POPC  H15Y20096   0.794   2.242   4.155 -0.1872  0.3911  1.2748
  150POPC  C31620097   0.860   2.245   4.356  0.1807  1.0210 -0.4467
  150POPC  H16X20098   0.949   2.212   4.414  0.2701  1.0599 -0.5613
  150POPC  H16Y20099   0.778   2.182   4.395  0.3970  1.0765  0.0969
  150POPC  H16Z20100   0.840   2.354   4.360  1.7034  1.2589  0.8081
  151POPC     N20101   2.696   6.992   1.682  0.1696  0.0353  0.3180
  151POPC   C1220102   2.798   7.066   1.765  0.3306 -0.1306  0.2680
  151POPC  H12A20106   2.807   7.165   1.722 -1.3170 -0.5969 -1.2180
  151POPC  H12B20107   2.886   7.006   1.753  0.1066 -0.1724 -1.2135
  151POPC   C1320103   2.666   6.856   1.740  0.0112  0.0133  0.1874
  151POPC  H13A20108   2.626   6.870   1.839  0.0080  0.8901  0.0676
  151POPC  H13B20109   2.604   6.814   1.663 -0.1734  0.8695 -0.1404
  151POPC  H13C20110   2.760   6.803   1.742 -0.0869 -0.1091  2.5449
  151POPC   C1420104   2.569   7.071   1.656  0.0321 -0.2487  0.1352
  151POPC  H14A20111   2.593   7.161   1.601  0.5817 -0.0029  0.7792
  151POPC  H14B20112   2.493   7.018   1.600 -0.7006  0.2139  0.6982
  151POPC  H14C20113   2.518   7.103   1.745  1.8192  1.4460  0.5752
  151POPC   C1520105   2.759   6.969   1.547  0.0407 -0.1075  0.2815
  151POPC  H15A20114   2.697   6.899   1.493 -1.9230  0.5430  1.6280
  151POPC  H15B20115   2.859   6.930   1.560  0.8846  1.5112 -1.1072
  151POPC  H15C20116   2.769   7.064   1.495  0.1418 -1.0494 -1.4690
  151POPC   C1120117   2.759   7.084   1.912 -0.1204 -0.5049  0.1973
  151POPC  H11A20118   2.854   7.127   1.951  0.3955 -2.4339  1.1263
  151POPC  H11B20119   2.750   6.991   1.971  0.2417  0.7401  2.2701
  151POPC     P20120   2.604   7.168   2.089  0.5055  0.0951 -0.0305
  151POPC   O1320121   2.508   7.059   2.117 -0.2044  0.7670  0.1779
  151POPC   O1420122   2.553   7.304   2.115  0.1724  0.0343 -0.3751
  151POPC   O1220123   2.645   7.167   1.935  0.3743  0.2479 -0.0656
  151POPC   O1120124   2.739   7.144   2.172  0.4638  0.4679  0.1468
  151POPC    C120125   2.733   7.024   2.249 -0.0801  0.3889 -0.0149
  151POPC    HA20126   2.837   6.987   2.267 -0.8277 -2.0736 -0.4587
  151POPC    HB20127   2.686   6.939   2.194 -3.4282  2.5444 -0.6392
  151POPC    C220128   2.662   7.040   2.384 -0.0181  0.0700  0.0581
  151POPC    HS20129   2.557   7.051   2.347 -0.4672 -1.6538  0.7853
  151POPC   O2120130   2.699   7.164   2.446  0.0324  0.0357  0.0956
  151POPC   C2120131   2.616   7.181   2.549 -0.2657 -0.0034 -0.1368
  151POPC   O2220132   2.525   7.108   2.585 -0.3137  0.1186 -0.0115
  151POPC   C2220133   2.662   7.302   2.629 -0.8187  0.0401  0.1147
  151POPC   H2R20134   2.671   7.396   2.571 -1.9626 -0.0065 -0.1511
  151POPC   H2S20135   2.766   7.288   2.666 -0.6725  1.9396  0.4667
  151POPC    C320136   2.676   6.911   2.466 -0.1786  0.1539  0.2187
  151POPC    HX20137   2.670   6.828   2.393 -1.3448  0.5385 -0.1305
  151POPC    HY20138   2.602   6.889   2.546  0.8535 -4.3726  0.0547
  151POPC   O3120139   2.803   6.910   2.531 -0.2828 -0.1022  0.4176
  151POPC   C3120140   2.837   6.792   2.584  0.0382 -0.5143 -0.7002
  151POPC   O3220141   2.758   6.699   2.585 -0.3047 -0.2173  0.5987
  151POPC   C3220142   2.975   6.794   2.647 -0.0390 -0.0220 -0.5391
  151POPC   H2X20143   3.038   6.721   2.590 -0.3532 -2.2359  1.8722
  151POPC   H2Y20144   2.957   6.747   2.746 -0.0459 -0.2976 -0.6683
  151POPC   C2320145   2.565   7.314   2.747 -0.1581  0.0788  0.6568
  151POPC   H3R20146   2.548   7.221   2.805 -0.9888 -0.4219 -0.3866
  151POPC   H3S20147   2.468   7.345   2.704  0.5696 -1.9449 -2.5784
  151POPC   C2420148   2.602   7.420   2.851  0.4741  0.5897 -0.0809
  151POPC   H4R20149   2.604   7.523   2.809 -1.0804  0.6878  0.0749
  151POPC   H4S20150   2.691   7.417   2.918 -1.7972  1.1016  3.0709
  151POPC   C2520151   2.487   7.439   2.950  0.2266  1.1866 -0.4777
  151POPC   H5R20152   2.506   7.352   3.018  0.6250  0.6462 -1.2690
  151POPC   H5S20153   2.390   7.442   2.896 -0.4521 -0.0409  0.6409
  151POPC   C2620154   2.497   7.567   3.034 -0.2328  0.6095  0.4748
  151POPC   H6R20155   2.462   7.632   2.950 -1.3748 -0.0824  0.4031
  151POPC   H6S20156   2.605   7.586   3.053 -0.6335  3.6891 -0.0782
  151POPC   C2720157   2.405   7.594   3.153 -0.1046  0.2338  0.6613
  151POPC   H7R20158   2.303   7.576   3.114  0.3315  0.4300 -0.6021
  151POPC   H7S20159   2.400   7.702   3.178 -0.9151  0.0118  1.4712
  151POPC   C2820160   2.428   7.499   3.271 -0.0106 -0.2446  0.2612
  151POPC   H8R20161   2.523   7.525   3.321  0.5034  0.3102 -0.9683
  151POPC   H8S20162   2.429   7.396   3.231  1.4529  1.5573 -4.7561
  151POPC   C2920163   2.317   7.510   3.371 -0.0557  0.1051  0.1730
  151POPC   H9120164   2.303   7.618   3.391  1.0005  0.9298 -3.3165
  151POPC  C21020165   2.252   7.413   3.436 -0.0511 -0.1205 -0.1608
  151POPC  H10120166   2.176   7.425   3.514 -0.0532 -0.2740 -0.1387
  151POPC  C21120167   2.277   7.268   3.406 -0.3675 -0.1475 -0.2867
  151POPC  H11R20168   2.342   7.246   3.319  0.6967  1.0949  0.1863
  151POPC  H11S20169   2.185   7.210   3.382 -0.6781 -0.5610  1.8182
  151POPC  C21220170   2.343   7.218   3.535  0.0016 -0.1347 -0.4694
  151POPC  H12R20171   2.262   7.219   3.611  0.8552  1.3079  0.4390
  151POPC  H12S20172   2.422   7.287   3.572  0.1556 -0.1346 -0.7997
  151POPC  C21320173   2.400   7.078   3.509 -0.0571 -0.1209 -0.6786
  151POPC  H13R20174   2.492   7.103   3.451  0.1591  2.1454  0.5605
  151POPC  H13S20175   2.322   7.020   3.455 -0.5846  1.9206 -2.1888
  151POPC  C21420176   2.453   7.009   3.635  0.3234  0.5904 -0.4428
  151POPC  H14R20177   2.371   6.969   3.698  0.0779  1.5462 -0.1520
  151POPC  H14S20178   2.491   7.085   3.707 -0.7823  1.2098 -0.4952
  151POPC  C21520179   2.556   6.898   3.610 -0.0551  0.0512  0.3929
  151POPC  H15R20180   2.626   6.951   3.543 -3.1709  0.2404 -2.8775
  151POPC  H15S20181   2.518   6.809   3.555 -0.4245  1.8229 -2.2948
  151POPC  C21620182   2.607   6.836   3.740  0.2697  0.4400  0.4521
  151POPC  H16R20183   2.628   6.903   3.826 -2.7542 -0.5405  2.0253
  151POPC  H16S20184   2.702   6.789   3.705  0.3725 -0.6286  2.0824
  151POPC  C21720185   2.511   6.733   3.800  0.1286  0.1855 -0.2111
  151POPC  H17R20186   2.501   6.653   3.723  0.3307 -0.4517  0.4267
  151POPC  H17S20187   2.413   6.780   3.823  0.3203  0.5227 -0.0814
  151POPC  C21820188   2.561   6.655   3.921  0.0903  0.4596 -0.0166
  151POPC  H18R20189   2.657   6.607   3.891  0.7048  2.0208 -0.5667
  151POPC  H18S20190   2.488   6.574   3.943 -0.9502  1.5619  0.6044
  151POPC  H18T20191   2.587   6.719   4.007 -1.0436  3.6861 -1.9724
  151POPC   C3320192   3.035   6.934   2.657 -0.1015 -0.0349  0.0131
  151POPC   H3X20193   3.048   6.974   2.554  1.5219 -2.4155 -0.7671
  151POPC   H3Y20194   3.136   6.907   2.697 -0.2665 -1.7732 -0.7216
  151POPC   C3420195   2.967   7.036   2.748 -0.3229  0.1256 -0.3310
  151POPC   H4X20196   2.871   7.067   2.702  0.2532  1.7025 -0.5046
  151POPC   H4Y20197   3.037   7.122   2.756  1.5228 -1.4842  1.5128
  151POPC   C3520198   2.933   6.987   2.889  0.3037  0.0871 -0.1874
  151POPC   H5X20199   3.001   6.901   2.906  1.4928  0.7723 -1.4183
  151POPC   H5Y20200   2.832   6.940   2.895 -1.6288  3.9150 -0.8423
  151POPC   C3620201   2.942   7.090   3.001 -0.0474 -0.4364  0.3264
  151POPC   H6X20202   3.004   7.176   2.967 -1.7819  0.5935 -0.3331
  151POPC   H6Y20203   2.996   7.041   3.085  0.6372 -0.8858 -0.3710
  151POPC   C3720204   2.803   7.129   3.052  0.0241 -0.2558  0.3817
  151POPC   H7X20205   2.746   7.042   3.091 -1.3850  0.4444 -0.0574
  151POPC   H7Y20206   2.762   7.152   2.951 -0.7626 -1.1119  0.5085
  151POPC   C3820207   2.789   7.250   3.145 -0.8491 -0.0933  0.0392
  151POPC   H8X20208   2.688   7.250   3.191 -0.8246  1.2709  0.1314
  151POPC   H8Y20209   2.808   7.350   3.100 -2.1188  0.3069  0.3504
  151POPC   C3920210   2.878   7.259   3.269 -0.0926 -0.5796 -0.4696
  151POPC   H9X20211   2.851   7.358   3.309  0.2535 -0.9679  0.7358
  151POPC   H9Y20212   2.985   7.260   3.240  0.5423 -1.3823  1.7407
  151POPC  C31020213   2.857   7.147   3.372  0.0228 -0.7747 -0.6563
  151POPC  H10X20214   2.837   7.049   3.324 -2.2429 -1.8739  2.3928
  151POPC  H10Y20215   2.759   7.179   3.413  0.6051  0.3373 -0.1167
  151POPC  C31120216   2.964   7.135   3.481 -0.7800  0.7752  0.3330
  151POPC  H11X20217   2.998   7.229   3.529  2.5113  1.4061 -3.0258
  151POPC  H11Y20218   3.058   7.087   3.446 -1.3315  0.8741 -1.3397
  151POPC  C31220219   2.910   7.035   3.583 -0.1622  0.1122  0.0173
  151POPC  H12X20220   2.872   6.949   3.525 -1.9060  0.0821  1.1787
  151POPC  H12Y20221   2.823   7.076   3.638  1.7076  3.2663  0.7578
  151POPC  C31320222   3.020   6.991   3.680 -0.0966 -0.1155 -0.1586
  151POPC  H13X20223   3.111   6.957   3.627  0.2974  1.2435 -0.3719
  151POPC  H13Y20224   2.990   6.897   3.731 -0.0387 -0.4295 -0.7077
  151POPC  C31420225   3.061   7.095   3.785 -0.3277 -0.7915  0.6113
  151POPC  H14X20226   2.978   7.103   3.858 -2.2957 -0.9937 -1.5425
  151POPC  H14Y20227   3.085   7.187   3.727  0.8835 -1.1297  0.5566
  151POPC  C31520228   3.193   7.066   3.858  0.3394  0.2880 -0.1424
  151POPC  H15X20229   3.230   7.152   3.918  0.3360 -0.2141  0.5816
  151POPC  H15Y20230   3.259   7.053   3.770 -0.1016 -2.7943 -0.0766
  151POPC  C31620231   3.207   6.940   3.943  0.4931 -0.1463 -0.8109
  151POPC  H16X20232   3.183   6.847   3.886  1.1601 -2.0629  1.9237
  151POPC  H16Y20233   3.138   6.948   4.030  0.3072 -0.2687 -0.9471
  151POPC  H16Z20234   3.315   6.939   3.969  0.3451  0.0504 -0.1945
  152POPC     N20235   5.554   3.686   2.800  0.0139 -0.3186  0.1474
  152POPC   C1220236   5.484   3.781   2.894 -0.2942  0.1206 -0.5231
  152POPC  H12A20240   5.383   3.744   2.909 -0.7525  0.9171 -1.5590
  152POPC  H12B20241   5.468   3.877   2.848  2.2266  1.1186  0.5767
  152POPC   C1320237   5.683   3.738   2.742 -0.3823  0.4271 -0.0697
  152POPC  H13A20242   5.680   3.844   2.718  0.7525  0.5501  0.3524
  152POPC  H13B20243   5.761   3.743   2.816 -0.4293 -1.0598  0.0848
  152POPC  H13C20244   5.701   3.692   2.646  0.4037  1.7023 -0.5454
  152POPC   C1420238   5.573   3.556   2.874  0.3685 -0.4323 -0.1436
  152POPC  H14A20245   5.488   3.559   2.941 -1.4803 -0.3652 -2.4505
  152POPC  H14B20246   5.565   3.474   2.804 -0.4517 -0.7989  0.3708
  152POPC  H14C20247   5.657   3.548   2.942  0.0835  1.9775  0.5428
  152POPC   C1520239   5.450   3.658   2.694 -0.2778  0.2395  0.2808
  152POPC  H15A20248   5.482   3.591   2.615  1.5297  3.1856 -1.5378
  152POPC  H15B20249   5.415   3.748   2.647  0.7065 -0.2307 -1.4082
  152POPC  H15C20250   5.363   3.619   2.744 -0.6873 -0.4439 -0.9402
  152POPC   C1120251   5.552   3.807   3.029 -0.2058 -0.2274 -0.4999
  152POPC  H11A20252   5.546   3.729   3.107 -1.3467  0.0667 -0.2888
  152POPC  H11B20253   5.480   3.878   3.076 -0.6667 -0.4133 -0.9164
  152POPC     P20254   5.720   3.967   3.112 -0.1014  0.0077  0.0362
  152POPC   O1320255   5.629   4.079   3.080  0.1359 -0.0374 -0.8044
  152POPC   O1420256   5.866   3.990   3.100 -0.0867 -0.3146 -0.4153
  152POPC   O1220257   5.686   3.851   3.007 -0.1813 -0.0143  0.0865
  152POPC   O1120258   5.698   3.908   3.259  0.4036 -0.5617 -0.1131
  152POPC    C120259   5.610   3.979   3.347  0.1880  0.1336 -0.8753
  152POPC    HA20260   5.581   3.913   3.432 -0.6027  0.4451 -0.9056
  152POPC    HB20261   5.516   4.007   3.296 -0.3199  2.6948  1.3819
  152POPC    C220262   5.664   4.115   3.395 -0.0844 -0.0691  0.0276
  152POPC    HS20263   5.706   4.171   3.309  0.8821  0.1727  0.6511
  152POPC   O2120264   5.765   4.085   3.491  0.4387 -0.3644 -0.6051
  152POPC   C2120265   5.848   4.187   3.512 -0.1720  0.0076  0.0292
  152POPC   O2220266   5.833   4.292   3.452  0.0894  0.1684  0.2437
  152POPC   C2220267   5.963   4.140   3.601 -0.6551 -0.1322  0.5812
  152POPC   H2R20268   6.054   4.100   3.553  0.6548  1.2176  1.8836
  152POPC   H2S20269   5.929   4.067   3.678  0.5921 -1.2497  0.0784
  152POPC    C320270   5.554   4.193   3.469 -0.0744 -0.2045  0.1860
  152POPC    HX20271   5.468   4.213   3.401  1.3135  0.2373 -1.4986
  152POPC    HY20272   5.610   4.285   3.496  0.7056  0.2277 -2.6533
  152POPC   O3120273   5.502   4.124   3.583 -0.3792 -0.1662  0.0698
  152POPC   C3120274   5.475   4.198   3.691 -0.3521  0.1300 -0.1261
  152POPC   O3220275   5.490   4.319   3.694 -0.3461  0.1252  0.0307
  152POPC   C3220276   5.445   4.100   3.802  0.4534 -0.0692 -0.0778
  152POPC   H2X20277   5.532   4.053   3.853 -0.1686 -2.3744 -1.0753
  152POPC   H2Y20278   5.390   4.017   3.752 -0.0688  0.8719 -1.0909
  152POPC   C2320279   6.003   4.253   3.696  0.2221 -0.1043  0.1814
  152POPC   H3R20280   6.014   4.337   3.624 -0.2863  0.0803  0.3122
  152POPC   H3S20281   6.110   4.236   3.717  1.2731  3.2018 -2.0453
  152POPC   C2420282   5.912   4.285   3.815  0.4848 -0.0018  0.3535
  152POPC   H4R20283   5.897   4.185   3.861  3.1995 -0.4544  0.3557
  152POPC   H4S20284   5.815   4.317   3.772 -0.9501 -1.3149  2.5672
  152POPC   C2520285   5.971   4.396   3.903 -0.0072  0.3006  0.3021
  152POPC   H5R20286   5.958   4.494   3.851  0.0344 -0.3479 -0.9600
  152POPC   H5S20287   6.075   4.366   3.926  0.2921  1.1992  0.1235
  152POPC   C2620288   5.907   4.390   4.042  0.1340 -0.1581  0.3471
  152POPC   H6R20289   5.908   4.284   4.077  0.0374  0.1829  1.3806
  152POPC   H6S20290   5.806   4.435   4.035 -0.3992 -1.4497 -0.4329
  152POPC   C2720291   5.977   4.469   4.152  0.1069  0.2372  0.0794
  152POPC   H7R20292   6.084   4.442   4.165  0.5794  1.3832 -1.2971
  152POPC   H7S20293   5.921   4.451   4.247 -0.5985 -1.9438 -0.7325
  152POPC   C2820294   5.963   4.619   4.125  0.0005  0.2374  0.1362
  152POPC   H8R20295   5.857   4.642   4.102 -0.6793 -0.0332  2.8946
  152POPC   H8S20296   6.023   4.638   4.033  0.2068 -1.1611 -0.0280
  152POPC   C2920297   6.011   4.701   4.242  0.2156 -0.6687  0.6864
  152POPC   H9120298   5.950   4.678   4.331  0.9942  0.9558  1.6516
  152POPC  C21020299   6.107   4.793   4.251 -0.2321 -0.0815 -0.4894
  152POPC  H10120300   6.132   4.846   4.344  1.2285 -2.1757  0.3289
  152POPC  C21120301   6.189   4.851   4.139 -0.2201 -0.0209 -0.4509
  152POPC  H11R20302   6.178   4.812   4.035 -0.8728 -1.0635  0.0027
  152POPC  H11S20303   6.297   4.840   4.163  0.1679 -0.9396 -2.4948
  152POPC  C21220304   6.170   5.003   4.140  0.2035  0.0270  0.0317
  152POPC  H12R20305   6.261   5.056   4.106  1.4576 -1.8297  0.3976
  152POPC  H12S20306   6.158   5.043   4.243  0.4573  0.5676 -0.1471
  152POPC  C21320307   6.049   5.055   4.063  0.0240 -0.4619 -0.0194
  152POPC  H13R20308   5.976   4.973   4.046  0.2038 -0.5023 -0.6338
  152POPC  H13S20309   6.101   5.076   3.967 -0.9047 -0.6698 -0.5801
  152POPC  C21420310   5.976   5.177   4.120  0.0646 -0.4199 -0.0567
  152POPC  H14R20311   6.056   5.253   4.131 -0.8140  0.5604 -0.4230
  152POPC  H14S20312   5.932   5.146   4.217 -1.0064 -1.1737 -0.7682
  152POPC  C21520313   5.870   5.224   4.021  0.0964  0.1144  0.1654
  152POPC  H15R20314   5.841   5.136   3.961  1.5451  1.5366 -2.7250
  152POPC  H15S20315   5.929   5.289   3.952  2.0383 -3.0243 -1.2282
  152POPC  C21620316   5.746   5.284   4.089 -0.3745 -0.7574  0.0783
  152POPC  H16R20317   5.691   5.213   4.154 -1.6917 -0.6741 -0.9317
  152POPC  H16S20318   5.683   5.323   4.006  1.1059  0.2342 -0.6185
  152POPC  C21720319   5.766   5.410   4.172 -0.4548 -0.9383  0.3712
  152POPC  H17R20320   5.661   5.447   4.181 -0.5261 -0.6385 -1.4652
  152POPC  H17S20321   5.835   5.476   4.116 -4.9926  2.0302 -2.0579
  152POPC  C21820322   5.815   5.388   4.315 -0.3552 -0.8904  0.3449
  152POPC  H18R20323   5.754   5.313   4.370 -3.0909  0.1286 -1.2171
  152POPC  H18S20324   5.800   5.485   4.368  0.1710  0.1366 -1.3585
  152POPC  H18T20325   5.923   5.359   4.317  0.1983  0.8832 -1.9341
  152POPC   C3320326   5.350   4.160   3.906  0.3650 -0.8176  0.2812
  152POPC   H3X20327   5.332   4.084   3.985 -2.8003  1.7800  2.2337
  152POPC   H3Y20328   5.250   4.184   3.865  0.7390  0.0664 -0.1247
  152POPC   C3420329   5.403   4.279   3.986 -0.2589 -0.0446 -0.4439
  152POPC   H4X20330   5.424   4.374   3.933 -0.5303  1.6359  2.3179
  152POPC   H4Y20331   5.502   4.249   4.027 -1.1091  0.4703  2.0837
  152POPC   C3520332   5.313   4.319   4.104 -0.1497  0.8492 -0.6574
  152POPC   H5X20333   5.274   4.233   4.163  1.2187 -0.0568 -1.0357
  152POPC   H5Y20334   5.219   4.373   4.083 -0.0955  1.5947  0.9853
  152POPC   C3620335   5.394   4.388   4.214 -0.0971 -0.4567  0.1349
  152POPC   H6X20336   5.450   4.471   4.165 -1.0211 -0.4637 -0.9627
  152POPC   H6Y20337   5.485   4.328   4.238  1.4318  1.6368 -0.2399
  152POPC   C3720338   5.326   4.442   4.339  0.3493  0.5049 -0.0341
  152POPC   H7X20339   5.400   4.466   4.419  1.8932 -0.2428 -1.2227
  152POPC   H7Y20340   5.244   4.377   4.376 -1.3960  2.2164 -0.8018
  152POPC   C3820341   5.263   4.575   4.298 -0.1847  0.2632 -0.0076
  152POPC   H8X20342   5.213   4.559   4.200  1.4700  2.2911 -1.2247
  152POPC   H8Y20343   5.343   4.653   4.289 -1.1621  1.2178 -0.5144
  152POPC   C3920344   5.157   4.619   4.398 -0.0715  0.1787  0.1511
  152POPC   H9X20345   5.208   4.600   4.495  0.7628 -1.4208 -0.5841
  152POPC   H9Y20346   5.071   4.549   4.401  0.4694 -0.5369 -0.8837
  152POPC  C31020347   5.113   4.765   4.384 -0.0487  0.2121  0.4459
  152POPC  H10X20348   5.056   4.767   4.289 -3.2486 -1.3792  2.2395
  152POPC  H10Y20349   5.194   4.840   4.372 -1.5833  1.8786  0.2237
  152POPC  C31120350   5.008   4.815   4.484 -0.1405 -0.4908  0.7046
  152POPC  H11X20351   5.072   4.829   4.574  1.2305 -0.0079 -0.3342
  152POPC  H11Y20352   4.930   4.737   4.497  0.5879 -1.3405  0.0492
  152POPC  C31220353   4.935   4.942   4.440 -0.4239 -1.0509 -0.4365
  152POPC  H12X20354   4.888   4.933   4.340  0.8341  2.8025 -1.4594
  152POPC  H12Y20355   5.001   5.031   4.440  0.3652 -1.6071  1.5508
  152POPC  C31320356   4.820   4.964   4.538  0.3772  0.3480  0.1884
  152POPC  H13X20357   4.860   4.965   4.642 -2.4650  2.5747  1.3614
  152POPC  H13Y20358   4.744   4.883   4.535 -0.7284  1.3553  0.4170
  152POPC  C31420359   4.751   5.101   4.527 -0.0386  0.1004 -0.2645
  152POPC  H14X20360   4.719   5.112   4.421 -2.7577 -0.0644  0.5047
  152POPC  H14Y20361   4.830   5.172   4.559 -1.0529  2.0134 -1.8973
  152POPC  C31520362   4.634   5.122   4.623  0.2421 -0.3540  0.1840
  152POPC  H15X20363   4.672   5.100   4.725 -1.1988  1.0070  1.0453
  152POPC  H15Y20364   4.565   5.038   4.600 -0.9083  0.3455  1.0373
  152POPC  C31620365   4.563   5.257   4.625  0.0341 -0.4511 -0.3938
  152POPC  H16X20366   4.463   5.248   4.673  0.7172 -0.8884  0.9646
  152POPC  H16Y20367   4.547   5.279   4.517  0.5400 -2.9706 -0.9935
  152POPC  H16Z20368   4.626   5.329   4.682  0.7511 -1.6296  0.3242
  153POPC     N20369   4.504   6.437   1.901 -0.1164 -0.4861  0.3161
  153POPC   C1220370   4.628   6.403   1.979  0.4184  0.4574 -0.1175
  153POPC  H12A20374   4.708   6.455   1.927 -1.4325  2.2623 -1.2363
  153POPC  H12B20375   4.648   6.299   1.958  3.1589  0.6492  1.2442
  153POPC   C1320371   4.513   6.586   1.879  0.1738 -0.6957 -0.9737
  153POPC  H13A20376   4.439   6.608   1.804  0.2442  1.1248 -0.5384
  153POPC  H13B20377   4.491   6.641   1.969  0.4307 -2.6050  0.2865
  153POPC  H13C20378   4.614   6.614   1.851 -0.3220  1.7473 -0.4136
  153POPC   C1420372   4.511   6.375   1.764  0.0956  0.0089  0.1004
  153POPC  H14A20379   4.610   6.392   1.725  1.3794  0.6141  3.4845
  153POPC  H14B20380   4.495   6.268   1.773 -0.3101 -0.1585 -2.4148
  153POPC  H14C20381   4.443   6.428   1.700 -1.6928 -1.2362  0.9057
  153POPC   C1520373   4.375   6.406   1.974 -0.6165  0.3452 -0.2077
  153POPC  H15A20382   4.362   6.299   1.987  2.9811 -0.1335  0.0295
  153POPC  H15B20383   4.289   6.454   1.930 -1.7438 -0.6103  0.9123
  153POPC  H15C20384   4.373   6.457   2.069  0.3086 -0.1557  0.0879
  153POPC   C1120385   4.649   6.446   2.125  0.2263 -0.1838  0.1007
  153POPC  H11A20386   4.735   6.393   2.171  2.1618  1.3886 -1.5951
  153POPC  H11B20387   4.556   6.420   2.180 -0.4518  0.3520 -0.7730
  153POPC     P20388   4.730   6.641   2.266  0.0288  0.3512 -0.1082
  153POPC   O1320389   4.693   6.784   2.274 -0.6195  0.1550  0.4265
  153POPC   O1420390   4.874   6.605   2.264 -0.1436 -0.3180 -0.3043
  153POPC   O1220391   4.662   6.588   2.131  0.2009 -0.1777  0.0134
  153POPC   O1120392   4.649   6.554   2.373  0.2832  0.2145 -0.0263
  153POPC    C120393   4.518   6.594   2.416  0.1456 -0.2486 -0.0158
  153POPC    HA20394   4.438   6.551   2.352 -0.3214 -0.4796  0.7217
  153POPC    HB20395   4.501   6.704   2.418  0.2378 -0.2316 -0.1897
  153POPC    C220396   4.483   6.540   2.555  0.4225 -0.2685  0.0478
  153POPC    HS20397   4.407   6.608   2.600 -1.5634 -0.7400 -2.4644
  153POPC   O2120398   4.605   6.515   2.626  0.4653 -0.0477  0.0499
  153POPC   C2120399   4.646   6.632   2.676 -0.0240 -0.0502  0.4623
  153POPC   O2220400   4.586   6.738   2.668  0.6987  0.3208 -0.0583
  153POPC   C2220401   4.777   6.610   2.749 -0.0032  0.2413  0.5155
  153POPC   H2R20402   4.825   6.700   2.792 -1.3083  0.5633  1.3323
  153POPC   H2S20403   4.842   6.542   2.689 -1.1094  0.4526 -0.9323
  153POPC    C320404   4.422   6.400   2.532 -0.7874  0.2633 -0.0370
  153POPC    HX20405   4.489   6.345   2.463  0.5607  1.6155  0.1624
  153POPC    HY20406   4.326   6.402   2.476 -0.0359  1.4049 -1.3255
  153POPC   O3120407   4.420   6.322   2.652  0.1379  0.1225 -0.1061
  153POPC   C3120408   4.297   6.318   2.704  0.1983 -0.5179 -0.0065
  153POPC   O3220409   4.210   6.400   2.679  0.4637 -0.2924 -0.1919
  153POPC   C3220410   4.289   6.208   2.808  0.4619 -0.3253  0.2178
  153POPC   H2X20411   4.372   6.225   2.880 -2.1031  0.0632  3.2098
  153POPC   H2Y20412   4.305   6.110   2.756 -0.9887 -0.6242  0.3044
  153POPC   C2320413   4.749   6.518   2.868  0.2133  0.3751  0.6708
  153POPC   H3R20414   4.838   6.534   2.933  0.7274  0.6207 -0.0904
  153POPC   H3S20415   4.758   6.411   2.839  1.3521  0.5123  0.4871
  153POPC   C2420416   4.619   6.528   2.948  0.0128  0.3471  0.3502
  153POPC   H4R20417   4.529   6.554   2.889  0.2504 -1.8636 -1.0444
  153POPC   H4S20418   4.640   6.615   3.014  0.8588  1.3736 -1.2313
  153POPC   C2520419   4.595   6.398   3.025  0.3433 -0.1763 -0.4188
  153POPC   H5R20420   4.662   6.406   3.114  1.8354  0.4021 -1.5748
  153POPC   H5S20421   4.615   6.308   2.964 -1.1605 -1.5676  1.0742
  153POPC   C2620422   4.458   6.385   3.093  0.4615  0.8160  0.0264
  153POPC   H6R20423   4.435   6.280   3.122 -2.5589  1.0449 -1.3122
  153POPC   H6S20424   4.382   6.410   3.016  0.4010  1.5269  0.3135
  153POPC   C2720425   4.436   6.483   3.208  0.2361  0.5462  0.2128
  153POPC   H7R20426   4.420   6.581   3.158 -0.2121 -0.8027 -2.3961
  153POPC   H7S20427   4.524   6.483   3.276  0.5803 -0.6307 -0.2290
  153POPC   C2820428   4.318   6.452   3.300  0.2893  0.2572  0.1845
  153POPC   H8R20429   4.306   6.342   3.309 -0.1381  0.2700 -0.1719
  153POPC   H8S20430   4.229   6.498   3.253  0.2509 -0.2896 -0.2852
  153POPC   C2920431   4.325   6.515   3.436  0.1465 -0.0134  0.3180
  153POPC   H9120432   4.336   6.624   3.442 -4.0988  0.5999 -1.2771
  153POPC  C21020433   4.316   6.447   3.551 -0.0655 -0.0220  0.2977
  153POPC  H10120434   4.328   6.501   3.646  1.2159 -1.2059  0.8188
  153POPC  C21120435   4.291   6.300   3.566 -0.0888 -0.0557 -0.0823
  153POPC  H11R20436   4.354   6.242   3.494  0.3154  1.1736 -0.7257
  153POPC  H11S20437   4.185   6.281   3.538 -0.3874  1.4739  0.0072
  153POPC  C21220438   4.331   6.259   3.708 -0.1729  0.6066  0.1298
  153POPC  H12R20439   4.251   6.280   3.783  0.3708 -0.2056  0.9470
  153POPC  H12S20440   4.419   6.319   3.738  0.9018 -1.6309  1.6051
  153POPC  C21320441   4.339   6.108   3.728  0.4089  0.6978  0.5850
  153POPC  H13R20442   4.401   6.056   3.651 -0.1907 -0.0652  0.6100
  153POPC  H13S20443   4.240   6.059   3.726  0.5257  0.3699  2.6052
  153POPC  C21420444   4.382   6.059   3.866  0.3823  0.2995  0.4538
  153POPC  H14R20445   4.304   6.091   3.939 -0.4988 -0.6754 -0.0478
  153POPC  H14S20446   4.476   6.107   3.900 -0.0077  1.7518 -0.4868
  153POPC  C21520447   4.399   5.907   3.873  0.3844  0.2676 -0.1923
  153POPC  H15R20448   4.477   5.867   3.805 -1.0404 -1.9253 -0.5722
  153POPC  H15S20449   4.300   5.867   3.845  0.5915  0.2715 -0.9309
  153POPC  C21620450   4.418   5.852   4.014 -0.3648  0.2107 -0.1112
  153POPC  H16R20451   4.380   5.748   4.022  0.4120 -0.1248 -0.6474
  153POPC  H16S20452   4.371   5.923   4.085  0.9591  2.5006 -1.4682
  153POPC  C21720453   4.565   5.818   4.044 -0.4171 -0.1410 -0.2554
  153POPC  H17R20454   4.605   5.746   3.970  1.0307  0.6843 -0.3019
  153POPC  H17S20455   4.565   5.779   4.148  0.3928 -0.1013 -0.2428
  153POPC  C21820456   4.666   5.932   4.053 -0.1723 -0.3844  0.1012
  153POPC  H18R20457   4.764   5.898   4.092 -0.1011 -0.1974  0.0867
  153POPC  H18S20458   4.632   6.002   4.133 -0.2470 -3.0841  2.5177
  153POPC  H18T20459   4.686   5.979   3.955 -2.8361  1.0312  0.1822
  153POPC   C3320460   4.160   6.190   2.889  0.2223 -0.5083 -0.2011
  153POPC   H3X20461   4.087   6.155   2.813 -1.0383 -1.0742  1.2492
  153POPC   H3Y20462   4.129   6.293   2.915 -2.1565 -1.0971 -0.6063
  153POPC   C3420463   4.184   6.093   3.004 -0.1274 -0.6544 -0.2538
  153POPC   H4X20464   4.275   6.134   3.053 -0.8618  0.1442  0.4642
  153POPC   H4Y20465   4.211   5.991   2.971  1.5509 -0.6440  1.0062
  153POPC   C3520466   4.068   6.108   3.103 -0.2079 -0.1402 -0.4235
  153POPC   H5X20467   3.967   6.079   3.065 -0.7911  0.8761  0.3122
  153POPC   H5Y20468   4.045   6.214   3.127  0.9283  0.6668 -2.7065
  153POPC   C3620469   4.102   6.061   3.245 -0.3900  0.0252 -0.3252
  153POPC   H6X20470   4.026   6.105   3.312 -0.7315 -1.7129  0.4688
  153POPC   H6Y20471   4.203   6.098   3.269 -0.0688  0.7293 -2.6727
  153POPC   C3720472   4.086   5.911   3.270 -0.1361  0.0863  0.1909
  153POPC   H7X20473   4.150   5.847   3.205  3.8440  3.0308  1.0291
  153POPC   H7Y20474   3.987   5.867   3.248 -0.8970  1.5062  0.7584
  153POPC   C3820475   4.111   5.873   3.416 -0.4302 -0.0395  0.2089
  153POPC   H8X20476   4.082   5.766   3.414  0.9384 -0.4295  0.5463
  153POPC   H8Y20477   4.052   5.934   3.488 -0.5150 -0.8567  0.8385
  153POPC   C3920478   4.254   5.881   3.472 -0.5012 -0.7520  0.4999
  153POPC   H9X20479   4.240   5.880   3.582 -2.0912  2.3737  0.3747
  153POPC   H9Y20480   4.289   5.982   3.443 -1.2250 -0.5310  0.3902
  153POPC  C31020481   4.340   5.768   3.414 -0.2834 -0.1153 -0.4302
  153POPC  H10X20482   4.365   5.773   3.306  0.9037  0.4505 -0.1306
  153POPC  H10Y20483   4.285   5.678   3.448 -1.2097  0.7125  0.3288
  153POPC  C31120484   4.472   5.760   3.490 -0.2159 -0.0518 -0.5408
  153POPC  H11X20485   4.457   5.721   3.593  1.3688  1.2645  0.2053
  153POPC  H11Y20486   4.516   5.861   3.497 -1.0621  0.4258 -2.0143
  153POPC  C31220487   4.571   5.672   3.413  0.1351 -0.1186 -0.0168
  153POPC  H12X20488   4.672   5.695   3.452 -0.3839  1.2016  0.5968
  153POPC  H12Y20489   4.566   5.705   3.308  0.7614 -0.0942 -0.0391
  153POPC  C31320490   4.545   5.522   3.433  0.0374 -0.0887  0.0952
  153POPC  H13X20491   4.454   5.479   3.386  0.3254 -0.1036 -0.4528
  153POPC  H13Y20492   4.536   5.501   3.542  2.1636  1.8789  0.6813
  153POPC  C31420493   4.660   5.445   3.368  0.5438  0.2578  0.5836
  153POPC  H14X20494   4.651   5.343   3.412 -1.4507 -0.9838 -2.5942
  153POPC  H14Y20495   4.759   5.482   3.404  0.6954 -0.8358  1.3192
  153POPC  C31520496   4.661   5.425   3.217 -0.1586  0.0396  0.6064
  153POPC  H15X20497   4.559   5.398   3.184 -0.6443  2.1666  0.2699
  153POPC  H15Y20498   4.738   5.352   3.186 -0.2544 -0.2891  1.1396
  153POPC  C31620499   4.695   5.549   3.134 -0.4180 -0.4321 -0.2145
  153POPC  H16X20500   4.717   5.521   3.029 -0.2015 -0.9918 -0.0215
  153POPC  H16Y20501   4.777   5.607   3.183 -0.7591  0.0054 -0.1542
  153POPC  H16Z20502   4.609   5.620   3.144 -0.1213  0.0362 -0.9517
  154POPC     N20503   2.000   4.570   2.034 -0.4609  0.0154 -0.1679
  154POPC   C1220504   2.147   4.605   2.034 -0.2020 -1.0518 -0.1767
  154POPC  H12A20508   2.157   4.692   1.970  0.0102 -1.4018 -0.6240
  154POPC  H12B20509   2.199   4.535   1.971  0.3078  1.4235 -2.6136
  154POPC   C1320505   1.958   4.528   1.895  0.3812  0.1598 -0.4694
  154POPC  H13A20510   2.027   4.449   1.869  1.5750  1.1123 -0.2177
  154POPC  H13B20511   1.855   4.494   1.892 -0.0359  1.2467  1.0688
  154POPC  H13C20512   1.968   4.610   1.825 -0.2773  1.4792  0.9392
  154POPC   C1420506   1.957   4.461   2.129 -0.9060  0.2260 -0.1283
  154POPC  H14A20513   1.948   4.491   2.232  0.1646 -0.9724  0.3308
  154POPC  H14B20514   1.863   4.423   2.091  0.1078 -1.2229 -1.2794
  154POPC  H14C20515   2.023   4.376   2.123 -1.4856 -0.1448 -1.4965
  154POPC   C1520507   1.918   4.694   2.062  0.4678  0.7892 -0.8121
  154POPC  H15A20516   1.813   4.669   2.055  1.0331 -2.5788  1.2160
  154POPC  H15B20517   1.941   4.770   1.989  1.6806 -0.1267 -1.4053
  154POPC  H15C20518   1.933   4.729   2.163  0.3234  1.6062 -1.0775
  154POPC   C1120519   2.222   4.625   2.165 -0.2170 -0.1453 -0.2994
  154POPC  H11A20520   2.329   4.644   2.141  0.8268 -2.5236  2.0971
  154POPC  H11B20521   2.219   4.535   2.232 -3.6882  1.2195  1.4649
  154POPC     P20522   2.236   4.804   2.348  0.1472  0.2156  0.2853
  154POPC   O1320523   2.168   4.933   2.372 -0.2987 -0.0341  0.3632
  154POPC   O1420524   2.381   4.810   2.318  0.1005  0.7379  0.1619
  154POPC   O1220525   2.157   4.735   2.228  0.5106  0.0403  0.1441
  154POPC   O1120526   2.212   4.702   2.468  0.1513 -0.0048  0.0980
  154POPC    C120527   2.078   4.656   2.488  0.3011 -0.3981  0.2074
  154POPC    HA20528   2.087   4.562   2.547  0.5884 -1.2215 -1.1243
  154POPC    HB20529   2.031   4.629   2.391  0.8982  2.9270 -1.0572
  154POPC    C220530   1.993   4.758   2.564  0.5135 -0.1009  0.0472
  154POPC    HS20531   1.991   4.858   2.516  0.9216 -0.2424 -0.2641
  154POPC   O2120532   2.054   4.749   2.693  0.1292  0.0272  0.2381
  154POPC   C2120533   2.026   4.860   2.763 -0.1561 -0.0093  0.1821
  154POPC   O2220534   1.970   4.959   2.720 -0.6689 -0.6467 -0.6489
  154POPC   C2220535   2.079   4.856   2.906 -0.0863  0.3842  0.1669
  154POPC   H2R20536   2.084   4.962   2.938 -0.8305 -0.1434  2.0631
  154POPC   H2S20537   2.177   4.805   2.919 -0.2933  0.2473  1.1758
  154POPC    C320538   1.849   4.704   2.570  0.2852  0.4640 -0.3306
  154POPC    HX20539   1.865   4.595   2.586  1.1837  0.2804 -2.2882
  154POPC    HY20540   1.794   4.717   2.474  0.6638  1.8053 -0.3721
  154POPC   O3120541   1.781   4.768   2.678 -0.0362 -0.0509 -0.2241
  154POPC   C3120542   1.651   4.743   2.695 -0.0380  0.1532  0.0623
  154POPC   O3220543   1.583   4.665   2.632 -0.2684  0.5381 -0.1712
  154POPC   C3220544   1.606   4.812   2.823 -0.2713 -0.3427  0.2465
  154POPC   H2X20545   1.497   4.835   2.819 -0.2208 -0.3698 -2.4976
  154POPC   H2Y20546   1.662   4.907   2.837  0.1563 -0.1672 -2.4074
  154POPC   C2320547   1.977   4.786   2.996 -0.3213 -0.2061 -0.5420
  154POPC   H3R20548   1.970   4.694   2.935  0.0621 -0.2134 -0.5799
  154POPC   H3S20549   1.882   4.843   2.999 -0.8826 -1.1356 -0.5787
  154POPC   C2420550   2.021   4.754   3.139 -0.2555  0.1251 -0.4861
  154POPC   H4R20551   2.038   4.844   3.202 -0.3372  1.8165 -2.8106
  154POPC   H4S20552   2.116   4.697   3.126 -0.9228 -0.8491 -1.1366
  154POPC   C2520553   1.925   4.657   3.209 -0.1313  0.3650  0.0160
  154POPC   H5R20554   1.907   4.562   3.155 -1.6771  0.2538  0.7019
  154POPC   H5S20555   1.834   4.719   3.221  0.1518  0.6720  0.6198
  154POPC   C2620556   1.972   4.623   3.351  0.8500 -0.4573 -0.5005
  154POPC   H6R20557   1.970   4.712   3.417  2.2968  0.2869 -1.4239
  154POPC   H6S20558   2.080   4.597   3.338  1.8173  2.1653  1.7002
  154POPC   C2720559   1.892   4.510   3.415 -0.5411  0.6635 -0.2511
  154POPC   H7R20560   1.925   4.412   3.373 -2.5448 -0.0053 -0.3415
  154POPC   H7S20561   1.786   4.519   3.382 -0.7498 -1.3696 -0.1933
  154POPC   C2820562   1.904   4.506   3.567  0.2656 -0.5368 -0.3430
  154POPC   H8R20563   1.846   4.422   3.611  1.8871 -1.4733  0.0678
  154POPC   H8S20564   1.840   4.593   3.593 -0.3358 -0.8619 -0.7345
  154POPC   C2920565   2.039   4.514   3.634  0.1565  0.5162 -0.2362
  154POPC   H9120566   2.123   4.483   3.570  1.3140  0.0121  1.4927
  154POPC  C21020567   2.067   4.579   3.747  0.0185 -0.3533  0.3043
  154POPC  H10120568   2.171   4.583   3.785  0.7759 -2.0769 -1.5354
  154POPC  C21120569   1.972   4.637   3.848  0.0793  0.2475  0.0181
  154POPC  H11R20570   1.870   4.594   3.841  0.4105 -0.2079 -2.7432
  154POPC  H11S20571   1.958   4.746   3.828  2.1748  0.7096  0.9495
  154POPC  C21220572   2.018   4.629   3.994 -0.1116 -0.0459  0.0619
  154POPC  H12R20573   2.115   4.681   4.010  0.3351 -1.1268  0.8747
  154POPC  H12S20574   2.030   4.524   4.026 -0.2156 -0.2137 -0.4441
  154POPC  C21320575   1.922   4.688   4.097  0.1158 -0.2985  0.4159
  154POPC  H13R20576   1.936   4.798   4.092 -0.9957 -0.2384 -2.4677
  154POPC  H13S20577   1.952   4.661   4.201  0.2472 -2.4729 -0.1639
  154POPC  C21420578   1.776   4.647   4.078  0.2735 -0.6198 -0.1236
  154POPC  H14R20579   1.775   4.536   4.073  1.5684 -0.7231  1.5673
  154POPC  H14S20580   1.729   4.675   3.981 -0.1680 -2.7236 -0.5270
  154POPC  C21520581   1.696   4.702   4.197  0.4975 -0.0676 -0.2245
  154POPC  H15R20582   1.746   4.671   4.292  0.3196 -1.9556 -0.7336
  154POPC  H15S20583   1.597   4.652   4.191  2.3719 -4.1072  0.4214
  154POPC  C21620584   1.659   4.850   4.198 -0.0444 -0.2030  0.0962
  154POPC  H16R20585   1.638   4.865   4.090  1.8408 -3.0925 -0.7487
  154POPC  H16S20586   1.746   4.916   4.221 -1.4356  1.2826  1.1757
  154POPC  C21720587   1.541   4.890   4.286 -0.1076  0.0112 -0.0839
  154POPC  H17R20588   1.437   4.878   4.250 -1.0447  0.1032  2.4923
  154POPC  H17S20589   1.555   5.000   4.302 -0.2466  0.2671 -1.6918
  154POPC  C21820590   1.543   4.818   4.421  0.8764 -0.2723 -0.2455
  154POPC  H18R20591   1.642   4.828   4.470  0.2859 -1.2466  1.1675
  154POPC  H18S20592   1.511   4.712   4.412  0.2046 -0.1732  0.8468
  154POPC  H18T20593   1.465   4.874   4.477  2.2709 -1.4121  2.9384
  154POPC   C3320594   1.625   4.731   2.952  0.1440 -0.4683  0.1078
  154POPC   H3X20595   1.606   4.799   3.038  0.0528  1.5948 -1.4860
  154POPC   H3Y20596   1.730   4.696   2.951 -0.2029 -1.5206 -1.4539
  154POPC   C3420597   1.528   4.613   2.965  0.0776 -0.4883 -0.5201
  154POPC   H4X20598   1.550   4.538   2.887 -1.7858 -0.2315 -1.3213
  154POPC   H4Y20599   1.426   4.653   2.949  0.1790 -0.2224 -0.5108
  154POPC   C3520600   1.537   4.559   3.108 -0.1167  0.1163 -0.2773
  154POPC   H5X20601   1.552   4.633   3.190 -1.2548 -3.9834  3.7948
  154POPC   H5Y20602   1.630   4.499   3.106  1.1398  2.0107 -0.8259
  154POPC   C3620603   1.413   4.478   3.147 -0.2345  0.3877 -0.0853
  154POPC   H6X20604   1.402   4.407   3.062  0.1236  0.5354 -0.2618
  154POPC   H6Y20605   1.321   4.541   3.151 -1.7573 -1.7334 -1.0391
  154POPC   C3720606   1.428   4.400   3.277 -0.0055  0.1719 -0.2398
  154POPC   H7X20607   1.345   4.326   3.276  0.5860 -0.4845 -0.6905
  154POPC   H7Y20608   1.414   4.466   3.366 -1.7920 -1.7824  0.9747
  154POPC   C3820609   1.561   4.325   3.288 -0.0581  0.1639  0.3818
  154POPC   H8X20610   1.640   4.403   3.293  0.2788 -0.2554  1.6530
  154POPC   H8Y20611   1.570   4.265   3.195  2.5919  0.6906  0.2621
  154POPC   C3920612   1.587   4.255   3.422 -0.2424  0.0115  0.3384
  154POPC   H9X20613   1.689   4.211   3.424  0.1010  0.6639 -1.3371
  154POPC   H9Y20614   1.517   4.169   3.424 -1.2570  0.7317 -2.1268
  154POPC  C31020615   1.558   4.336   3.548 -0.7292 -0.0186  0.2443
  154POPC  H10X20616   1.452   4.372   3.543  0.1766  2.5024 -1.9412
  154POPC  H10Y20617   1.618   4.429   3.542 -1.0085  0.1640  0.2413
  154POPC  C31120618   1.582   4.254   3.675  0.1544 -0.1749 -0.0239
  154POPC  H11X20619   1.687   4.226   3.698 -0.3257 -2.5381 -0.6363
  154POPC  H11Y20620   1.522   4.162   3.665  1.0527 -0.6980 -0.6580
  154POPC  C31220621   1.521   4.338   3.788 -0.3217 -0.6064  0.0382
  154POPC  H12X20622   1.418   4.364   3.757  0.6738  2.4137 -0.8305
  154POPC  H12Y20623   1.589   4.424   3.805 -1.9477  0.4835  1.1200
  154POPC  C31320624   1.534   4.247   3.911  0.4874 -0.0470  0.3698
  154POPC  H13X20625   1.638   4.208   3.920  1.3909  1.7324 -1.8372
  154POPC  H13Y20626   1.461   4.164   3.898 -2.0133  1.9766  1.2320
  154POPC  C31420627   1.494   4.325   4.035  0.3288 -0.1212  0.3656
  154POPC  H14X20628   1.385   4.315   4.058  0.8238  0.0944  2.9333
  154POPC  H14Y20629   1.525   4.431   4.024 -0.6594  0.2194  0.7899
  154POPC  C31520630   1.566   4.282   4.163  0.6360 -0.7064 -0.0074
  154POPC  H15X20631   1.537   4.367   4.227 -1.0781  1.0785 -3.0319
  154POPC  H15Y20632   1.676   4.293   4.146  0.5698  0.4131  0.2334
  154POPC  C31620633   1.524   4.141   4.204 -0.3150 -0.3990  0.0770
  154POPC  H16X20634   1.512   4.081   4.111 -0.9028  2.0849 -1.5144
  154POPC  H16Y20635   1.419   4.143   4.242 -0.5486  1.4156 -0.5870
  154POPC  H16Z20636   1.596   4.104   4.279  1.6380  1.8041 -0.6366
  155POPC     N20637   5.055   3.681   2.125 -0.2766  0.3485 -0.0129
  155POPC   C1220638   4.907   3.654   2.115 -0.2375  0.0556  0.1873
  155POPC  H12A20642   4.868   3.662   2.015 -1.7106 -0.3879  0.7139
  155POPC  H12B20643   4.864   3.735   2.173 -1.3459 -0.3550 -0.0406
  155POPC   C1320639   5.096   3.667   2.270  0.4259 -0.0464 -0.2485
  155POPC  H13A20644   5.068   3.570   2.309  1.4175 -0.2918 -0.1406
  155POPC  H13B20645   5.204   3.673   2.275  0.4339  1.0803 -1.5806
  155POPC  H13C20646   5.054   3.749   2.326  1.6043  0.5406 -0.2117
  155POPC   C1420640   5.117   3.578   2.034 -0.2952  0.1710  0.1749
  155POPC  H14A20647   5.225   3.575   2.036 -0.2687 -0.4160 -1.0469
  155POPC  H14B20648   5.072   3.482   2.056 -2.2098  1.3563  1.5646
  155POPC  H14C20649   5.090   3.608   1.933 -0.9749 -0.3439  0.1949
  155POPC   C1520641   5.086   3.820   2.075  0.5084  0.1525 -0.0714
  155POPC  H15A20650   5.192   3.839   2.065  0.7434  0.7993  2.9958
  155POPC  H15B20651   5.044   3.888   2.148 -0.7077  0.7055 -1.2745
  155POPC  H15C20652   5.042   3.853   1.983 -0.8669 -0.5429  0.3319
  155POPC   C1120653   4.843   3.527   2.171  0.5218  0.1162  1.2037
  155POPC  H11A20654   4.878   3.436   2.116 -1.0546  0.6581 -0.7438
  155POPC  H11B20655   4.735   3.538   2.147  0.4674 -0.9323  0.9324
  155POPC     P20656   4.824   3.363   2.372  0.0415  0.0449  0.1693
  155POPC   O1320657   4.952   3.291   2.354  0.0780  0.2708 -0.4609
  155POPC   O1420658   4.707   3.308   2.300 -0.2482  0.7635  0.0852
  155POPC   O1220659   4.846   3.510   2.313  0.2116  0.4606  1.2513
  155POPC   O1120660   4.798   3.397   2.527  0.4901  0.2488  0.2011
  155POPC    C120661   4.901   3.458   2.604 -0.0653  0.5293  0.7255
  155POPC    HA20662   4.886   3.567   2.618  1.4952  0.8446  0.0057
  155POPC    HB20663   4.995   3.461   2.545 -1.6013 -0.8122 -1.9059
  155POPC    C220664   4.933   3.391   2.738 -0.1075  0.2422  0.5930
  155POPC    HS20665   4.969   3.288   2.718  0.6791  0.5527  0.3836
  155POPC   O2120666   4.817   3.403   2.820 -0.5052  0.3681  0.0109
  155POPC   C2120667   4.762   3.286   2.851  0.2536  0.1566  0.5840
  155POPC   O2220668   4.804   3.176   2.819  0.1770  0.5419 -0.8532
  155POPC   C2220669   4.616   3.305   2.890  0.0508 -0.0799 -0.0569
  155POPC   H2R20670   4.550   3.271   2.807  3.5063 -1.5255 -2.3443
  155POPC   H2S20671   4.599   3.412   2.915 -2.4156 -0.7304  1.2113
  155POPC    C320672   5.058   3.461   2.795  0.1934  0.3533 -0.1947
  155POPC    HX20673   5.041   3.570   2.813 -0.7687  0.0781  0.5854
  155POPC    HY20674   5.136   3.446   2.718 -0.0220  0.9553 -0.5395
  155POPC   O3120675   5.091   3.406   2.923  0.5345  0.0244 -0.4242
  155POPC   C3120676   5.199   3.465   2.975 -0.1725  0.6313  0.3681
  155POPC   O3220677   5.266   3.555   2.927  0.3782  0.0254  0.0002
  155POPC   C3220678   5.230   3.389   3.104  0.1688  0.0651 -0.0456
  155POPC   H2X20679   5.274   3.289   3.084 -0.0309  0.1743 -1.0797
  155POPC   H2Y20680   5.138   3.382   3.165  2.0247 -0.9857  2.6919
  155POPC   C2320681   4.594   3.227   3.019 -0.3410 -0.2006 -0.1975
  155POPC   H3R20682   4.673   3.252   3.092 -1.4794  2.2189  0.2559
  155POPC   H3S20683   4.572   3.118   3.017  2.8103 -0.8532 -1.8848
  155POPC   C2420684   4.476   3.283   3.099  0.1270  0.0243  0.3396
  155POPC   H4R20685   4.484   3.394   3.096  2.0725 -0.1114 -0.1335
  155POPC   H4S20686   4.490   3.257   3.206 -0.5039 -3.2324 -0.3129
  155POPC   C2520687   4.343   3.228   3.047  0.2543  0.0967 -0.0686
  155POPC   H5R20688   4.271   3.251   3.128 -0.7886  3.2858 -1.8299
  155POPC   H5S20689   4.340   3.119   3.026  0.5906  0.0821 -0.0393
  155POPC   C2620690   4.290   3.284   2.915  0.0753  0.0553 -0.0136
  155POPC   H6R20691   4.345   3.229   2.836 -1.9862 -0.1380 -1.3617
  155POPC   H6S20692   4.298   3.394   2.905 -3.8130  0.5659  1.4111
  155POPC   C2720693   4.146   3.235   2.896 -0.0724  0.7668 -0.7618
  155POPC   H7R20694   4.163   3.135   2.942  2.3302  2.0069  1.1833
  155POPC   H7S20695   4.117   3.235   2.789  0.5869  3.4325 -0.9764
  155POPC   C2820696   4.036   3.312   2.970 -0.2553  0.0341 -0.2717
  155POPC   H8R20697   4.048   3.419   2.944 -1.7728  0.4217  0.5314
  155POPC   H8S20698   4.049   3.314   3.081  1.7379  1.7828 -0.5142
  155POPC   C2920699   3.898   3.271   2.927 -0.2992  0.1199 -0.2116
  155POPC   H9120700   3.909   3.224   2.828 -1.2949  1.9696 -1.2253
  155POPC  C21020701   3.776   3.295   2.977 -0.3699  0.1080 -0.3753
  155POPC  H10120702   3.686   3.244   2.940 -1.9785  1.3776  1.6468
  155POPC  C21120703   3.761   3.378   3.101 -0.3478 -0.3584 -0.0592
  155POPC  H11R20704   3.679   3.452   3.086  1.2892  1.3032 -1.0463
  155POPC  H11S20705   3.848   3.446   3.112 -0.2202 -0.1980 -1.9731
  155POPC  C21220706   3.726   3.301   3.229 -0.2038 -0.3505 -0.0154
  155POPC  H12R20707   3.809   3.231   3.251 -0.8137 -0.9160  0.5168
  155POPC  H12S20708   3.633   3.241   3.221 -0.2765  0.0842 -3.0082
  155POPC  C21320709   3.724   3.400   3.345  0.2024 -0.4104  0.0419
  155POPC  H13R20710   3.661   3.483   3.307  0.6207 -0.1145 -0.0102
  155POPC  H13S20711   3.824   3.439   3.375 -0.0492 -0.1260  0.5258
  155POPC  C21420712   3.648   3.350   3.468 -0.2651 -0.1111 -0.1269
  155POPC  H14R20713   3.700   3.257   3.497  1.6202  0.3090 -2.0501
  155POPC  H14S20714   3.545   3.330   3.432 -0.6611  0.0854  0.8641
  155POPC  C21520715   3.630   3.463   3.570 -0.2080  0.0377 -0.2798
  155POPC  H15R20716   3.573   3.544   3.520 -1.9602 -1.7950 -1.3018
  155POPC  H15S20717   3.729   3.499   3.606 -0.6121  0.6724  0.2265
  155POPC  C21620718   3.554   3.414   3.694  0.0634 -0.1040 -0.1685
  155POPC  H16R20719   3.624   3.347   3.749  1.2546  0.7673 -0.5830
  155POPC  H16S20720   3.468   3.354   3.660  0.3563 -2.0625  2.4149
  155POPC  C21720721   3.509   3.520   3.796 -0.2537 -0.2613 -0.1465
  155POPC  H17R20722   3.450   3.472   3.878 -0.8065  1.1778  0.3017
  155POPC  H17S20723   3.444   3.601   3.756  1.9599  0.5942 -2.1101
  155POPC  C21820724   3.628   3.591   3.859 -0.2251 -0.0617 -0.4267
  155POPC  H18R20725   3.601   3.673   3.929  0.2628  0.1803 -0.5172
  155POPC  H18S20726   3.699   3.637   3.786  1.0098  1.1454  1.4839
  155POPC  H18T20727   3.688   3.519   3.918  1.0954  1.2864 -0.0777
  155POPC   C3320728   5.332   3.467   3.187 -0.1256  0.4192 -0.0145
  155POPC   H3X20729   5.338   3.574   3.160 -1.2995  0.8539  1.3839
  155POPC   H3Y20730   5.433   3.424   3.166 -0.1597  0.5926 -0.5375
  155POPC   C3420731   5.310   3.468   3.338  0.7461 -0.4461  0.1282
  155POPC   H4X20732   5.322   3.367   3.383  0.2839 -1.0934 -1.1865
  155POPC   H4Y20733   5.206   3.499   3.362  0.5216  1.2642 -2.9020
  155POPC   C3520734   5.406   3.561   3.412  0.4814  0.0581 -0.1615
  155POPC   H5X20735   5.399   3.667   3.377 -0.6838 -0.3510 -1.2088
  155POPC   H5Y20736   5.514   3.541   3.399  0.4226  0.7424 -1.7903
  155POPC   C3620737   5.384   3.552   3.563  0.2647  0.4762 -0.1678
  155POPC   H6X20738   5.365   3.444   3.579  2.4310  0.2145  0.7085
  155POPC   H6Y20739   5.291   3.610   3.583 -1.0305 -0.8350 -2.1547
  155POPC   C3720740   5.500   3.621   3.634  0.3668  0.2494 -0.1143
  155POPC   H7X20741   5.509   3.720   3.585  0.1621 -0.8883 -2.4726
  155POPC   H7Y20742   5.597   3.567   3.626  0.2223 -0.2017  1.0706
  155POPC   C3820743   5.484   3.633   3.786 -0.2671  0.0293 -0.1626
  155POPC   H8X20744   5.579   3.681   3.820  0.4198 -0.9060 -0.7471
  155POPC   H8Y20745   5.474   3.527   3.819 -0.4044 -0.1617 -0.8130
  155POPC   C3920746   5.356   3.703   3.834 -0.5442 -0.5867  0.0035
  155POPC   H9X20747   5.260   3.652   3.810 -1.0182 -0.1332  0.9259
  155POPC   H9Y20748   5.350   3.805   3.790  0.6591 -0.6429 -0.3179
  155POPC  C31020749   5.353   3.711   3.986 -0.2686  0.4181 -0.0407
  155POPC  H10X20750   5.443   3.769   4.018 -2.7040  3.1254  2.1374
  155POPC  H10Y20751   5.360   3.605   4.021 -1.2129 -0.1910 -1.6762
  155POPC  C31120752   5.229   3.780   4.041 -0.3357  0.3157 -0.0622
  155POPC  H11X20753   5.151   3.708   4.009 -0.1919 -0.0749  0.4579
  155POPC  H11Y20754   5.220   3.876   3.985  1.1145 -0.2193 -1.2376
  155POPC  C31220755   5.225   3.809   4.192  0.1581 -0.2552  0.0600
  155POPC  H12X20756   5.251   3.917   4.185 -2.5956  0.3808 -0.8121
  155POPC  H12Y20757   5.311   3.757   4.241  0.1629 -2.0550 -1.7747
  155POPC  C31320758   5.087   3.796   4.257 -0.0623  0.0624 -0.3401
  155POPC  H13X20759   5.083   3.864   4.344 -1.6116 -0.8374  0.3086
  155POPC  H13Y20760   5.066   3.697   4.303  2.6272  0.1089  1.0808
  155POPC  C31420761   4.974   3.840   4.164 -0.4179 -0.4259 -0.1429
  155POPC  H14X20762   4.955   3.745   4.109 -1.4908 -0.4125  0.1993
  155POPC  H14Y20763   5.014   3.919   4.097 -0.9072 -0.0698 -0.0165
  155POPC  C31520764   4.839   3.873   4.226 -0.1223  0.1012  0.2183
  155POPC  H15X20765   4.844   3.956   4.301  0.4857 -0.7017  1.0750
  155POPC  H15Y20766   4.802   3.783   4.279  1.6813 -0.4878  0.5018
  155POPC  C31620767   4.726   3.907   4.129  0.0545 -0.6130 -0.2341
  155POPC  H16X20768   4.718   3.828   4.051 -0.1890 -0.7291 -0.0895
  155POPC  H16Y20769   4.754   4.005   4.084 -1.1866  1.4558  3.3676
  155POPC  H16Z20770   4.628   3.914   4.180  0.3524 -1.6165  0.4870
  156POPC     N20771   4.734   0.617   2.161 -0.4840  0.0406  0.3911
  156POPC   C1220772   4.613   0.577   2.242 -0.7680 -0.2242 -0.1601
  156POPC  H12A20776   4.649   0.533   2.334 -1.0176 -2.1690 -0.9764
  156POPC  H12B20777   4.560   0.502   2.186 -1.5988  3.3186 -4.4027
  156POPC   C1320773   4.817   0.497   2.121 -0.2821  0.2136  0.2886
  156POPC  H13A20778   4.844   0.443   2.211  0.5058  2.2389  1.3046
  156POPC  H13B20779   4.753   0.438   2.057 -0.4358  1.6153 -0.8884
  156POPC  H13C20780   4.908   0.522   2.069 -0.7685  1.6121  0.0739
  156POPC   C1420774   4.678   0.677   2.034  0.5654  0.0208 -0.0892
  156POPC  H14A20781   4.591   0.620   2.003 -0.8249  0.9789  1.9301
  156POPC  H14B20782   4.637   0.775   2.053 -1.9929 -1.0701  0.2171
  156POPC  H14C20783   4.760   0.681   1.964  0.3614 -0.6766 -0.3798
  156POPC   C1520775   4.818   0.717   2.237  0.1332 -0.1631 -0.0198
  156POPC  H15A20784   4.869   0.669   2.320 -2.0357 -0.8765  0.9346
  156POPC  H15B20785   4.760   0.800   2.275  1.1300 -0.3055  1.8697
  156POPC  H15C20786   4.893   0.762   2.173  0.5168  2.1074  1.9477
  156POPC   C1120787   4.518   0.690   2.283 -0.4197 -0.0339  0.1381
  156POPC  H11A20788   4.431   0.643   2.334  0.8578  0.3586  2.7437
  156POPC  H11B20789   4.470   0.739   2.195 -0.8445 -0.6293  0.0337
  156POPC     P20790   4.473   0.914   2.374  0.2327  0.1446  0.0895
  156POPC   O1320791   4.335   0.875   2.340  0.5343 -0.2707 -0.6911
  156POPC   O1420792   4.536   1.023   2.296 -0.0425  0.4553  0.2980
  156POPC   O1220793   4.571   0.788   2.372 -0.0040 -0.0376 -0.1046
  156POPC   O1120794   4.469   0.944   2.531 -0.1659  0.3206  0.0462
  156POPC    C120795   4.567   1.031   2.588 -0.0384 -0.0821  0.4493
  156POPC    HA20796   4.527   1.062   2.686  0.9566 -0.7398  1.0716
  156POPC    HB20797   4.576   1.120   2.522 -1.0493 -0.5780 -0.3762
  156POPC    C220798   4.707   0.969   2.608  0.1710  0.0027 -0.6802
  156POPC    HS20799   4.755   0.980   2.509  1.4323  0.6119 -0.0109
  156POPC   O2120800   4.681   0.833   2.645 -0.2843  0.1436 -0.4694
  156POPC   C2120801   4.783   0.756   2.607  0.1761  0.2560  0.5163
  156POPC   O2220802   4.872   0.788   2.530 -0.0372  0.4067  0.3279
  156POPC   C2220803   4.764   0.613   2.654 -0.3613  0.1340 -0.0625
  156POPC   H2R20804   4.665   0.579   2.614 -2.1566  1.9919  2.6614
  156POPC   H2S20805   4.766   0.625   2.764 -0.3647 -0.5500  0.0162
  156POPC    C320806   4.794   1.053   2.703  0.0737 -0.0610 -0.5339
  156POPC    HX20807   4.806   1.154   2.657 -1.6185  0.5501  0.3121
  156POPC    HY20808   4.898   1.014   2.705 -0.2040 -0.8968  4.1910
  156POPC   O3120809   4.745   1.072   2.836  0.3942  0.2827 -0.4618
  156POPC   C3120810   4.801   0.990   2.926 -0.4067  0.0153 -0.1981
  156POPC   O3220811   4.872   0.896   2.894 -0.3253 -0.0214  0.0929
  156POPC   C3220812   4.750   1.028   3.064  0.3668 -0.1567  0.1383
  156POPC   H2X20813   4.641   1.053   3.062  0.3589 -0.1691  0.3760
  156POPC   H2Y20814   4.809   1.115   3.099  1.7194 -1.4504  1.0849
  156POPC   C2320815   4.872   0.525   2.590 -0.0713  0.6381 -0.2734
  156POPC   H3R20816   4.875   0.538   2.480 -1.3052  0.2622 -0.3608
  156POPC   H3S20817   4.830   0.425   2.615  0.6243  1.0610  2.7887
  156POPC   C2420818   5.015   0.535   2.643 -0.1951 -0.4608  0.3022
  156POPC   H4R20819   5.032   0.640   2.610  1.4242 -1.8786 -3.6136
  156POPC   H4S20820   5.093   0.469   2.602  0.4714 -0.5050  1.6066
  156POPC   C2520821   5.019   0.535   2.796 -0.0849 -0.0222  0.3017
  156POPC   H5R20822   4.957   0.450   2.832 -2.2039  1.5367  0.4003
  156POPC   H5S20823   4.977   0.621   2.852  2.1977  0.1544  1.8316
  156POPC   C2620824   5.162   0.516   2.846  0.0109 -0.1485 -0.0200
  156POPC   H6R20825   5.222   0.595   2.796 -1.6393 -0.1895 -2.1142
  156POPC   H6S20826   5.205   0.422   2.805  0.9456  0.0291  0.5288
  156POPC   C2720827   5.182   0.527   2.997  0.1491  0.4449 -0.0812
  156POPC   H7R20828   5.145   0.427   3.028  0.6913 -0.0457 -0.9792
  156POPC   H7S20829   5.123   0.612   3.038  1.0620  1.1026 -0.1078
  156POPC   C2820830   5.331   0.535   3.032  0.1531 -0.0149  0.0107
  156POPC   H8R20831   5.349   0.592   3.126 -0.5032  1.9302 -1.0102
  156POPC   H8S20832   5.364   0.613   2.960 -0.5827  0.2874 -0.0030
  156POPC   C2920833   5.413   0.411   3.012  0.3443  0.0935  0.1191
  156POPC   H9120834   5.416   0.383   2.905  0.1172  2.4438 -0.5328
  156POPC  C21020835   5.472   0.339   3.108  1.5269  0.5520 -0.2472
  156POPC  H10120836   5.526   0.248   3.080  0.0904 -0.7549  1.1176
  156POPC  C21120837   5.465   0.367   3.256 -0.0464 -0.1047 -0.1868
  156POPC  H11R20838   5.393   0.447   3.285  1.0755  0.5268  0.8875
  156POPC  H11S20839   5.561   0.411   3.290 -0.3543 -0.0495  0.6200
  156POPC  C21220840   5.446   0.241   3.340  0.2178 -0.0042  0.0267
  156POPC  H12R20841   5.451   0.273   3.446  3.0513  2.0203 -0.6674
  156POPC  H12S20842   5.528   0.166   3.337  2.0696  1.9596  0.4312
  156POPC  C21320843   5.305   0.180   3.338 -0.0005  0.4859  0.5351
  156POPC  H13R20844   5.274   0.153   3.235 -0.0671 -0.4214  0.7889
  156POPC  H13S20845   5.242   0.269   3.362 -2.5672 -1.5932  1.8093
  156POPC  C21420846   5.282   0.061   3.430  0.3964 -0.2503 -0.3114
  156POPC  H14R20847   5.351   7.943   3.395  1.2491 -0.8707  2.5244
  156POPC  H14S20848   5.179   0.021   3.424 -0.7534  2.2180  1.7767
  156POPC  C21520849   5.316   0.101   3.574 -0.1231  0.1053 -0.2858
  156POPC  H15R20850   5.275   0.196   3.612 -0.1796 -0.2444  0.5369
  156POPC  H15S20851   5.425   0.113   3.592 -0.2398 -1.5405  1.7522
  156POPC  C21620852   5.262   7.947   3.658 -0.2903  0.2426 -0.1469
  156POPC  H16R20853   5.286   7.850   3.610  0.8954 -0.5390  1.9834
  156POPC  H16S20854   5.152   7.933   3.646 -0.6124  1.4089  1.2717
  156POPC  C21720855   5.300   7.946   3.806 -0.0890  0.6548 -0.1946
  156POPC  H17R20856   5.241   0.063   3.857  0.4006  1.4379 -0.7868
  156POPC  H17S20857   5.407   0.002   3.831  0.2385 -0.9916 -0.3182
  156POPC  C21820858   5.265   7.816   3.880 -0.1088  0.7004 -0.1214
  156POPC  H18R20859   5.283   7.816   3.989 -2.0143 -0.2009  0.2044
  156POPC  H18S20860   5.325   7.733   3.836 -1.2166 -0.1171 -0.0969
  156POPC  H18T20861   5.161   7.790   3.855 -0.9123  1.6030  2.1682
  156POPC   C3320862   4.773   0.908   3.157 -0.1046 -0.2581  0.1251
  156POPC   H3X20863   4.878   0.874   3.151  0.5818  1.6921  0.5163
  156POPC   H3Y20864   4.723   0.818   3.117 -1.6728 -0.2660  2.0170
  156POPC   C3420865   4.748   0.930   3.306 -0.1858 -0.1957  0.1035
  156POPC   H4X20866   4.811   1.014   3.343  4.4883 -2.5433 -2.1574
  156POPC   H4Y20867   4.772   0.835   3.359  1.6904  0.2805  0.1316
  156POPC   C3520868   4.598   0.947   3.331 -0.0778  0.5272  0.2662
  156POPC   H5X20869   4.543   0.876   3.265 -4.1576  2.4456  1.4255
  156POPC   H5Y20870   4.585   1.051   3.293 -1.2800  1.3566  2.8336
  156POPC   C3620871   4.550   0.918   3.474  0.2194 -0.2494  0.2075
  156POPC   H6X20872   4.544   0.808   3.489 -3.9877  0.1323  1.7954
  156POPC   H6Y20873   4.442   0.941   3.481  0.0112 -0.6460 -1.4917
  156POPC   C3720874   4.638   0.969   3.588  0.4944 -0.1276 -0.0559
  156POPC   H7X20875   4.585   1.053   3.639 -0.4323  0.8615 -2.5312
  156POPC   H7Y20876   4.727   1.022   3.548 -1.6108  3.9451  0.3342
  156POPC   C3820877   4.694   0.867   3.686  0.1224 -0.1627  0.1215
  156POPC   H8X20878   4.773   0.814   3.628 -0.8508 -1.3900 -0.1101
  156POPC   H8Y20879   4.617   0.795   3.721 -1.0025  1.6486  1.4646
  156POPC   C3920880   4.766   0.932   3.804 -0.7023  0.7893  0.1056
  156POPC   H9X20881   4.848   0.989   3.756 -0.0300 -0.8521 -0.7497
  156POPC   H9Y20882   4.808   0.838   3.847 -1.8465 -0.1917 -0.8848
  156POPC  C31020883   4.682   1.023   3.894 -0.8928  0.5426  0.1781
  156POPC  H10X20884   4.686   0.980   3.997  0.3350 -1.8369 -0.8208
  156POPC  H10Y20885   4.578   1.015   3.858 -1.3961  1.0150  1.5139
  156POPC  C31120886   4.727   1.169   3.898  0.4934  0.1360 -0.0146
  156POPC  H11X20887   4.726   1.213   3.796  1.0098 -0.7114 -0.3839
  156POPC  H11Y20888   4.826   1.163   3.947  1.0773  1.2694 -1.0426
  156POPC  C31220889   4.645   1.270   3.979 -0.6383 -0.4328 -0.4370
  156POPC  H12X20890   4.555   1.307   3.927 -1.5429  2.1054  2.7287
  156POPC  H12Y20891   4.707   1.363   3.984 -2.6810  0.9125  0.8103
  156POPC  C31320892   4.609   1.211   4.116  0.1968  0.1676  0.0490
  156POPC  H13X20893   4.699   1.175   4.170 -0.1587  0.3783  0.7811
  156POPC  H13Y20894   4.546   1.121   4.100  2.4951 -1.5453  0.3953
  156POPC  C31420895   4.537   1.308   4.210 -0.6380  0.0472 -0.4593
  156POPC  H14X20896   4.446   1.349   4.161  0.0683  0.2463 -1.6153
  156POPC  H14Y20897   4.613   1.388   4.222 -0.0079 -0.8201  1.5117
  156POPC  C31520898   4.500   1.247   4.345 -0.5354  0.8667 -0.0579
  156POPC  H15X20899   4.476   1.332   4.413 -2.0161  1.2774 -1.0735
  156POPC  H15Y20900   4.578   1.186   4.396 -2.8311 -2.1442 -0.0196
  156POPC  C31620901   4.366   1.174   4.346 -0.7295  1.2193 -0.1456
  156POPC  H16X20902   4.275   1.237   4.337 -0.8507  1.0995  0.2415
  156POPC  H16Y20903   4.350   1.115   4.438 -3.1425  4.3408  1.5308
  156POPC  H16Z20904   4.365   1.098   4.264  0.2534 -0.6134  1.5104
  157POPC     N20905   0.498   4.114   1.930 -0.4320 -0.1782 -0.0887
  157POPC   C1220906   0.463   4.102   2.077  0.2786  0.0428  0.0997
  157POPC  H12A20910   0.356   4.096   2.070  0.2829  1.2368 -1.2845
  157POPC  H12B20911   0.495   4.188   2.135  1.0608 -0.9612  1.1877
  157POPC   C1320907   0.411   4.221   1.869  0.2259  0.2448 -0.2970
  157POPC  H13A20912   0.421   4.310   1.930 -0.9568  0.0597  0.1968
  157POPC  H13B20913   0.440   4.232   1.766 -0.2018  0.5156 -0.3941
  157POPC  H13C20914   0.312   4.192   1.901  0.8707  0.8605  2.4218
  157POPC   C1420908   0.636   4.175   1.935 -0.2646 -0.5941  0.3788
  157POPC  H14A20915   0.636   4.265   1.995  3.4526  0.1996 -0.6835
  157POPC  H14B20916   0.690   4.099   1.990  2.2079 -0.3914 -1.6717
  157POPC  H14C20917   0.673   4.179   1.833 -3.1850 -0.9673 -0.7305
  157POPC   C1520909   0.502   3.984   1.855  0.1252 -0.3069  0.1608
  157POPC  H15A20918   0.488   4.000   1.749  1.5564 -1.6191 -0.2569
  157POPC  H15B20919   0.423   3.913   1.876 -1.3398  1.2470 -0.0224
  157POPC  H15C20920   0.591   3.927   1.880  0.2071 -0.2534 -0.0029
  157POPC   C1120921   0.510   3.977   2.152 -0.2205 -0.3633 -0.2625
  157POPC  H11A20922   0.476   3.880   2.109  0.5657  0.2563 -2.3642
  157POPC  H11B20923   0.461   3.993   2.250 -1.6418  0.2380 -1.0517
  157POPC     P20924   0.703   3.863   2.266  0.0757  0.2941  0.2265
  157POPC   O1320925   0.850   3.871   2.284  0.1728 -0.1593 -0.3767
  157POPC   O1420926   0.644   3.733   2.227  0.5557  0.2125 -0.2330
  157POPC   O1220927   0.652   3.978   2.168 -0.2628  0.0285  0.0881
  157POPC   O1120928   0.635   3.903   2.406 -0.3878 -0.1603  0.1343
  157POPC    C120929   0.720   3.970   2.499 -0.3098 -0.0291 -0.0284
  157POPC    HA20930   0.669   4.037   2.572  0.8540  2.4547 -1.4344
  157POPC    HB20931   0.790   4.036   2.444  0.7696 -1.4323 -0.3561
  157POPC    C220932   0.805   3.873   2.584 -0.0695 -0.0162 -0.2532
  157POPC    HS20933   0.861   3.809   2.514 -0.0419  0.5210 -0.7277
  157POPC   O2120934   0.703   3.795   2.648  0.0298 -0.2196 -0.3442
  157POPC   C2120935   0.739   3.683   2.711  0.6795  0.1097 -0.1242
  157POPC   O2220936   0.855   3.643   2.713  0.5259 -0.3824 -0.8747
  157POPC   C2220937   0.624   3.616   2.784  0.3911  0.6647 -0.0674
  157POPC   H2R20938   0.644   3.507   2.796 -0.9947  0.1671 -1.9384
  157POPC   H2S20939   0.529   3.633   2.729  1.5087  0.6734 -2.0403
  157POPC    C320940   0.912   3.935   2.676 -0.3985  0.0038  0.1204
  157POPC    HX20941   0.965   4.015   2.619 -0.1986 -1.5085 -1.8619
  157POPC    HY20942   0.987   3.858   2.704 -1.0397 -0.5416  0.3497
  157POPC   O3120943   0.855   3.988   2.796 -0.0321  0.2558  0.1827
  157POPC   C3120944   0.825   4.118   2.794 -0.4649  0.1568  0.3074
  157POPC   O3220945   0.843   4.187   2.695 -0.2245 -0.1948  0.1029
  157POPC   C3220946   0.781   4.171   2.930  0.5993  0.2779  0.6097
  157POPC   H2X20947   0.828   4.271   2.945  2.0505 -0.6001  2.0532
  157POPC   H2Y20948   0.811   4.101   3.010  0.4959 -1.5165 -0.8739
  157POPC   C2320949   0.622   3.650   2.933  0.2070 -0.1725  0.1235
  157POPC   H3R20950   0.619   3.760   2.949 -1.0707  0.1286 -1.9625
  157POPC   H3S20951   0.710   3.605   2.984 -0.4158  0.8905  2.1832
  157POPC   C2420952   0.497   3.594   3.001 -0.0194  0.4068  0.1822
  157POPC   H4R20953   0.480   3.491   2.962 -0.5427  1.1282 -1.5583
  157POPC   H4S20954   0.421   3.656   2.948 -1.6725 -2.1572 -0.5316
  157POPC   C2520955   0.502   3.614   3.152  0.5751 -0.3833  0.2676
  157POPC   H5R20956   0.528   3.720   3.170  1.5186 -0.6966  0.8089
  157POPC   H5S20957   0.578   3.546   3.196  2.3696  0.0759 -2.0390
  157POPC   C2620958   0.360   3.594   3.206  0.1235 -0.0644 -0.7970
  157POPC   H6R20959   0.328   3.494   3.168 -3.0591  0.3541  0.6336
  157POPC   H6S20960   0.294   3.669   3.158 -0.3296  0.7958  1.1248
  157POPC   C2720961   0.363   3.607   3.358 -0.0366 -0.5104 -0.7527
  157POPC   H7R20962   0.390   3.708   3.397  0.2746 -1.4136  1.4548
  157POPC   H7S20963   0.431   3.524   3.386 -0.1336 -0.6978 -1.0723
  157POPC   C2820964   0.230   3.576   3.426  0.1854 -0.3432 -0.2328
  157POPC   H8R20965   0.171   3.496   3.376 -0.1069  1.0676 -2.1884
  157POPC   H8S20966   0.165   3.666   3.422 -1.0570 -1.2719 -1.8650
  157POPC   C2920967   0.260   3.505   3.554 -0.7059 -0.2559  0.0281
  157POPC   H9120968   0.349   3.441   3.546 -2.1579 -2.6973  2.1950
  157POPC  C21020969   0.197   3.526   3.671  0.0125  0.0838  0.3595
  157POPC  H10120970   0.234   3.467   3.755  1.3469 -0.0029 -0.2794
  157POPC  C21120971   0.071   3.606   3.694 -0.0104  0.1833 -0.0945
  157POPC  H11R20972   0.044   3.648   3.595  1.2524  0.7158 -0.2245
  157POPC  H11S20973   0.096   3.681   3.773 -2.6355  1.0730 -0.0752
  157POPC  C21220974   7.925   3.506   3.737 -0.1465  0.0857 -0.5607
  157POPC  H12R20975   0.011   3.445   3.816  3.0266  2.3505 -0.6323
  157POPC  H12S20976   7.901   3.439   3.651 -1.8891 -1.6540  1.2535
  157POPC  C21320977   7.804   3.582   3.791  0.0128 -0.1401  0.1190
  157POPC  H13R20978   7.821   3.691   3.783 -1.4623  0.0052 -1.4862
  157POPC  H13S20979   7.788   3.544   3.894 -1.3706  0.5632  0.1790
  157POPC  C21420980   7.678   3.547   3.711 -0.2031  0.1944  0.3147
  157POPC  H14R20981   7.585   3.578   3.765 -0.3093 -3.0738  2.1553
  157POPC  H14S20982   7.677   3.437   3.697  1.8046  0.0038  1.5229
  157POPC  C21520983   7.671   3.610   3.572  0.3776 -0.2132  0.1011
  157POPC  H15R20984   7.775   3.616   3.532 -0.0078  0.2492 -0.8399
  157POPC  H15S20985   7.637   3.716   3.581 -3.6325 -1.4895  1.1307
  157POPC  C21620986   7.589   3.524   3.476  0.0637 -0.2014  0.3592
  157POPC  H16R20987   7.625   3.420   3.471 -2.1106 -0.9435 -0.6010
  157POPC  H16S20988   7.607   3.562   3.373  1.5856 -0.6942  0.4407
  157POPC  C21720989   7.441   3.512   3.513  0.1286 -0.6313  0.4729
  157POPC  H17R20990   7.394   3.607   3.546 -1.2668 -2.0579  2.7857
  157POPC  H17S20991   7.425   3.439   3.596  0.8871 -0.8899  0.3941
  157POPC  C21820992   7.361   3.453   3.397  0.1167 -0.0119  0.1658
  157POPC  H18R20993   7.388   3.345   3.389  0.6637  0.2281 -1.5258
  157POPC  H18S20994   7.403   3.508   3.310 -3.1703  1.1274 -0.7443
  157POPC  H18T20995   7.251   3.462   3.389  0.2904  1.7148 -0.4072
  157POPC   C3320996   0.628   4.166   2.924  0.6446 -0.3294 -0.1558
  157POPC   H3X20997   0.576   4.069   2.941 -0.6360  0.4660  0.5890
  157POPC   H3Y20998   0.596   4.200   2.824  2.4581  0.3700 -0.5138
  157POPC   C3420999   0.566   4.268   3.019  0.3325 -0.3549 -0.3326
  157POPC   H4X21000   0.457   4.286   3.004  0.3554  0.4341  0.3622
  157POPC   H4Y21001   0.623   4.360   2.993  0.1573 -0.2352 -0.2950
  157POPC   C3521002   0.586   4.241   3.168 -0.1800  0.6059 -0.0821
  157POPC   H5X21003   0.623   4.136   3.166 -0.1086  0.6375 -0.5176
  157POPC   H5Y21004   0.485   4.237   3.215 -0.6925 -0.9674 -1.2707
  157POPC   C3621005   0.678   4.346   3.231  0.1201  0.2866  0.0120
  157POPC   H6X21006   0.596   4.407   3.274 -0.3387  0.7211 -1.4486
  157POPC   H6Y21007   0.731   4.405   3.153  0.7788  0.1077  0.3208
  157POPC   C3721008   0.791   4.288   3.315  0.1764  0.2969 -0.0564
  157POPC   H7X21009   0.853   4.360   3.373  1.3809 -1.0703  0.4284
  157POPC   H7Y21010   0.863   4.236   3.247  0.5068  0.3630  0.2377
  157POPC   C3821011   0.742   4.186   3.419 -0.0112  0.1726 -0.2675
  157POPC   H8X21012   0.813   4.164   3.501  0.0616  2.3619  0.2959
  157POPC   H8Y21013   0.708   4.089   3.376  0.9621  0.1523 -1.0265
  157POPC   C3921014   0.624   4.245   3.497 -0.0443  0.5065 -0.5688
  157POPC   H9X21015   0.536   4.266   3.433 -0.8923 -1.3464 -0.0551
  157POPC   H9Y21016   0.666   4.336   3.545  1.0128 -1.1598  1.7828
  157POPC  C31021017   0.580   4.152   3.610 -0.1302  0.5635 -0.5559
  157POPC  H10X21018   0.665   4.119   3.672 -0.3234 -1.4203 -1.3114
  157POPC  H10Y21019   0.542   4.059   3.562  0.0107 -0.5244  1.3889
  157POPC  C31121020   0.463   4.207   3.692 -0.5240 -0.6140 -0.3261
  157POPC  H11X21021   0.365   4.166   3.657 -1.7420 -2.3587  4.6087
  157POPC  H11Y21022   0.451   4.314   3.667 -0.5043 -0.2509  1.1934
  157POPC  C31221023   0.479   4.184   3.842 -0.1780  0.2531 -0.2322
  157POPC  H12X21024   0.551   4.254   3.891  1.1778 -0.7077 -0.8190
  157POPC  H12Y21025   0.518   4.081   3.860  1.4885  0.9791  0.4949
  157POPC  C31321026   0.342   4.190   3.908 -0.0017  0.4726  0.1177
  157POPC  H13X21027   0.280   4.269   3.860  1.1938  1.7772  0.6678
  157POPC  H13Y21028   0.336   4.217   4.016  0.7304  1.0070  0.0242
  157POPC  C31421029   0.276   4.056   3.876  0.2895  0.2555  0.4292
  157POPC  H14X21030   0.322   3.972   3.933 -0.4728  0.6745  1.6793
  157POPC  H14Y21031   0.284   4.024   3.770 -2.3977 -3.6536  1.2886
  157POPC  C31521032   0.126   4.053   3.907  0.2552  0.0899  0.2499
  157POPC  H15X21033   0.067   4.113   3.834  0.6251 -1.0963 -1.0396
  157POPC  H15Y21034   0.099   4.085   4.010  1.6538  1.3353  0.2532
  157POPC  C31621035   0.078   3.908   3.901 -0.3230  0.2585  0.6965
  157POPC  H16X21036   7.932   3.917   3.921 -0.5750  0.6781 -0.5793
  157POPC  H16Y21037   0.131   3.845   3.976 -0.4982 -0.6704  0.0424
  157POPC  H16Z21038   0.082   3.877   3.794 -0.1515  0.1008  0.7483
  158POPC     N21039   2.341   2.388   1.718  0.0170  0.0552 -0.2889
  158POPC   C1221040   2.387   2.278   1.811 -0.0342  0.3520  0.0895
  158POPC  H12A21044   2.480   2.296   1.862 -0.1238  1.9924 -0.3065
  158POPC  H12B21045   2.393   2.180   1.766 -2.9909  0.5472 -0.8333
  158POPC   C1321041   2.457   2.411   1.624  0.2904 -0.6829 -0.1351
  158POPC  H13A21046   2.481   2.322   1.567  2.5825 -1.1030  1.4189
  158POPC  H13B21047   2.434   2.484   1.548  0.7457  0.1423  0.5081
  158POPC  H13C21048   2.545   2.451   1.671  0.7418 -2.1390  0.2833
  158POPC   C1421042   2.220   2.332   1.648 -0.1707  0.2596 -0.1272
  158POPC  H14A21049   2.247   2.236   1.607  0.4710  1.4361 -2.6012
  158POPC  H14B21050   2.141   2.340   1.721  0.6232 -0.8267  0.8613
  158POPC  H14C21051   2.205   2.374   1.549  0.7370 -0.8441 -0.7411
  158POPC   C1521043   2.308   2.520   1.784  0.3956 -0.0231  0.0626
  158POPC  H15A21052   2.277   2.596   1.714  0.5553  0.1028  0.1299
  158POPC  H15B21053   2.401   2.555   1.825  0.6969 -1.8701  1.0058
  158POPC  H15C21054   2.225   2.498   1.850 -1.5409 -2.1196 -2.9195
  158POPC   C1121055   2.299   2.255   1.934 -0.4312 -0.7992 -0.3982
  158POPC  H11A21056   2.349   2.311   2.017  0.3873 -0.4024 -1.1494
  158POPC  H11B21057   2.301   2.146   1.956 -1.2347 -0.8197 -0.4237
  158POPC     P21058   2.086   2.314   2.054  0.2509  0.1079 -0.2495
  158POPC   O1321059   1.940   2.297   2.040  0.2897 -0.2448 -0.2225
  158POPC   O1421060   2.116   2.442   2.123 -0.2046 -0.2678  0.6571
  158POPC   O1221061   2.165   2.301   1.916 -0.2792 -0.3909 -0.5044
  158POPC   O1121062   2.146   2.198   2.146 -0.6846 -0.7766 -0.7494
  158POPC    C121063   2.053   2.134   2.234  0.1051 -0.4011  0.3692
  158POPC    HA21064   2.088   2.034   2.265  0.6960 -0.0665  0.7913
  158POPC    HB21065   1.951   2.126   2.191  0.9333  0.7627 -1.9316
  158POPC    C221066   2.045   2.212   2.366 -0.2183  0.6413 -0.2549
  158POPC    HS21067   2.007   2.313   2.340 -3.1572 -0.9314 -2.2900
  158POPC   O2121068   2.181   2.222   2.409 -0.2547 -0.6403  0.1698
  158POPC   C2121069   2.214   2.326   2.485 -0.5950  0.1864 -0.8169
  158POPC   O2221070   2.148   2.427   2.503  0.1656  0.5260  0.1198
  158POPC   C2221071   2.365   2.319   2.507 -0.6092  0.1059 -0.7469
  158POPC   H2R21072   2.426   2.368   2.429 -0.0032 -2.1248 -1.6949
  158POPC   H2S21073   2.401   2.214   2.511 -0.5538  0.1251 -0.7499
  158POPC    C321074   1.947   2.143   2.463  0.1048  0.3938 -0.1000
  158POPC    HX21075   1.982   2.038   2.468 -0.7715  0.1849  2.1391
  158POPC    HY21076   1.845   2.127   2.420 -0.8240  1.8316  1.4743
  158POPC   O3121077   1.948   2.199   2.594 -0.5482  0.0649  0.0459
  158POPC   C3121078   1.869   2.306   2.602  0.1373  0.5802 -0.0726
  158POPC   O3221079   1.786   2.342   2.520  0.2169  0.0834 -0.3758
  158POPC   C3221080   1.890   2.367   2.740 -0.3054 -0.4595  0.4542
  158POPC   H2X21081   1.990   2.414   2.742 -0.7937  0.5589  3.8778
  158POPC   H2Y21082   1.868   2.279   2.805  1.0111 -0.7563  0.5234
  158POPC   C2321083   2.397   2.380   2.644 -0.1382 -0.5194 -0.5767
  158POPC   H3R21084   2.381   2.490   2.651  1.2494 -0.2219 -1.8406
  158POPC   H3S21085   2.506   2.368   2.655  0.0967 -0.5337 -2.7648
  158POPC   C2421086   2.349   2.311   2.772  0.3125  0.0073 -0.1220
  158POPC   H4R21087   2.372   2.204   2.753  0.2528  0.3669 -2.3981
  158POPC   H4S21088   2.241   2.335   2.780  0.7136  1.6295  0.4871
  158POPC   C2521089   2.416   2.346   2.905  0.5610  0.6656 -0.4184
  158POPC   H5R21090   2.521   2.308   2.908 -0.4305 -2.2123 -0.6938
  158POPC   H5S21091   2.376   2.288   2.991  0.9186  1.8478  0.5478
  158POPC   C2621092   2.412   2.493   2.947 -0.1289  0.4792  0.1621
  158POPC   H6R21093   2.313   2.537   2.923  0.5243  1.0642 -1.4823
  158POPC   H6S21094   2.488   2.546   2.888  0.6006 -0.8426 -0.1084
  158POPC   C2721095   2.443   2.516   3.095  0.1853  0.1927  0.1415
  158POPC   H7R21096   2.545   2.478   3.117  0.8319  1.1331 -1.1794
  158POPC   H7S21097   2.362   2.474   3.158 -1.6309  1.5486 -1.2315
  158POPC   C2821098   2.438   2.668   3.115  0.3909  0.2540 -0.2701
  158POPC   H8R21099   2.339   2.707   3.081  0.2213 -0.1339 -0.2202
  158POPC   H8S21100   2.517   2.711   3.050 -0.7480  1.9484 -0.5813
  158POPC   C2921101   2.460   2.712   3.256  0.1997 -0.1397 -0.1160
  158POPC   H9121102   2.367   2.706   3.315 -0.1274  0.6270 -0.5526
  158POPC  C21021103   2.575   2.744   3.318  0.3865  0.0650 -0.5629
  158POPC  H10121104   2.566   2.759   3.427 -1.8445  1.8293 -0.9528
  158POPC  C21121105   2.714   2.749   3.264  0.6850 -0.2659  0.1599
  158POPC  H11R21106   2.728   2.789   3.161 -1.3285  0.1352  0.0362
  158POPC  H11S21107   2.744   2.644   3.243 -2.0023 -0.6553 -2.0422
  158POPC  C21221108   2.807   2.811   3.368  0.4101 -0.1351  0.3237
  158POPC  H12R21109   2.780   2.790   3.474  0.9933 -1.2988  0.2428
  158POPC  H12S21110   2.800   2.922   3.359  0.5760 -0.2288 -1.0472
  158POPC  C21321111   2.948   2.760   3.340  0.1732 -0.5081 -0.1840
  158POPC  H13R21112   2.966   2.763   3.230  2.4285  1.3657  0.2028
  158POPC  H13S21113   2.952   2.653   3.370  0.5785 -0.2066  0.8328
  158POPC  C21421114   3.053   2.836   3.421 -0.5195 -0.0061  0.2472
  158POPC  H14R21115   3.046   2.943   3.389  0.6654 -0.6914 -2.4539
  158POPC  H14S21116   3.151   2.797   3.387 -0.2008  0.6433  0.4217
  158POPC  C21521117   3.041   2.825   3.573 -0.3340 -0.2899  0.2422
  158POPC  H15R21118   2.958   2.893   3.603 -0.3740  0.5319 -1.6603
  158POPC  H15S21119   3.139   2.871   3.597 -1.8593  2.8451  0.7705
  158POPC  C21621120   3.037   2.686   3.636 -0.1269 -0.4081 -0.0059
  158POPC  H16R21121   3.133   2.640   3.605  0.2657 -0.4209  1.2157
  158POPC  H16S21122   2.956   2.630   3.584  0.3261 -0.5270 -0.5910
  158POPC  C21721123   3.027   2.694   3.788 -0.2266  0.0565 -0.0362
  158POPC  H17R21124   2.931   2.741   3.815 -1.0219 -0.7075 -1.4703
  158POPC  H17S21125   3.101   2.755   3.845  2.6706 -2.3766 -1.0319
  158POPC  C21821126   3.029   2.556   3.854  0.2049  0.4635  0.8132
  158POPC  H18R21127   3.121   2.495   3.849 -1.0738 -1.7914  3.3521
  158POPC  H18S21128   2.946   2.492   3.815  1.1053 -2.8720  4.0455
  158POPC  H18T21129   3.005   2.573   3.962  0.3886  2.9221  0.4968
  158POPC   C3321130   1.789   2.475   2.779 -0.0057 -0.1540  0.3858
  158POPC   H3X21131   1.683   2.448   2.759  0.0675  0.7580 -1.3716
  158POPC   H3Y21132   1.808   2.561   2.711 -0.1844 -0.1400  0.3528
  158POPC   C3421133   1.803   2.519   2.924 -0.1643  0.5025  0.2029
  158POPC   H4X21134   1.799   2.432   2.993  2.2006  0.1615 -0.0328
  158POPC   H4Y21135   1.720   2.587   2.952 -0.1271  2.0570 -3.2690
  158POPC   C3521136   1.937   2.591   2.944 -0.0213  0.2968 -0.0010
  158POPC   H5X21137   1.929   2.682   2.881 -1.2625 -0.3346 -0.7665
  158POPC   H5Y21138   2.012   2.511   2.931 -0.5009 -0.1829  0.1850
  158POPC   C3621139   1.939   2.655   3.083 -0.5156  0.1082  0.0933
  158POPC   H6X21140   1.899   2.576   3.150  0.9573 -0.1091  0.7412
  158POPC   H6Y21141   1.871   2.743   3.075 -1.8366 -0.9599 -0.6928
  158POPC   C3721142   2.080   2.696   3.126 -0.4574  0.2260 -0.2143
  158POPC   H7X21143   2.117   2.759   3.041  1.2193  0.0610  0.3798
  158POPC   H7Y21144   2.135   2.601   3.140 -0.6390  0.4204  1.8538
  158POPC   C3821145   2.091   2.790   3.246  0.1040 -0.5473  0.3396
  158POPC   H8X21146   2.198   2.813   3.265 -0.7415  3.4881  0.7052
  158POPC   H8Y21147   2.051   2.728   3.330 -0.6109 -1.5316 -0.7084
  158POPC   C3921148   2.016   2.923   3.237  0.0211 -0.5808  0.5327
  158POPC   H9X21149   2.023   2.956   3.343  0.9278  1.8001 -0.2202
  158POPC   H9Y21150   1.910   2.904   3.213  0.3260  0.5296 -1.8192
  158POPC  C31021151   2.064   3.030   3.139 -0.3807 -0.2813  0.6615
  158POPC  H10X21152   2.065   2.974   3.043 -1.0155 -0.8965  1.0101
  158POPC  H10Y21153   2.167   3.065   3.164 -0.5486  2.7807 -2.5519
  158POPC  C31121154   1.965   3.147   3.132 -0.0334 -0.0004  0.3622
  158POPC  H11X21155   1.959   3.194   3.232  1.0329  0.7556  0.0753
  158POPC  H11Y21156   1.864   3.113   3.100  0.5475 -0.3410 -1.1608
  158POPC  C31221157   2.001   3.254   3.029 -0.1533 -0.1405  0.1743
  158POPC  H12X21158   2.029   3.192   2.941  1.1602 -1.2261  1.3531
  158POPC  H12Y21159   2.097   3.302   3.056  0.5925 -1.2509 -0.4382
  158POPC  C31321160   1.897   3.359   2.988 -0.3174 -0.2024  0.4326
  158POPC  H13X21161   1.895   3.446   3.057 -0.0760  0.0693  0.1011
  158POPC  H13Y21162   1.799   3.307   2.982 -1.7620  2.1482  2.6001
  158POPC  C31421163   1.937   3.419   2.853  0.3620 -0.0828  0.6840
  158POPC  H14X21164   1.843   3.466   2.815  0.2022 -0.7689  0.2228
  158POPC  H14Y21165   1.962   3.340   2.780 -0.5035  0.0947  0.1903
  158POPC  C31521166   2.046   3.527   2.853  0.1672  0.1168 -0.1268
  158POPC  H15X21167   2.132   3.475   2.899 -0.3337 -0.2704  0.3859
  158POPC  H15Y21168   2.022   3.618   2.913 -1.0466 -0.5715  0.4685
  158POPC  C31621169   2.088   3.573   2.714  0.4717 -0.1671 -0.1294
  158POPC  H16X21170   2.004   3.619   2.657  1.1313  2.1830  0.7165
  158POPC  H16Y21171   2.123   3.487   2.653  0.8194  0.3330 -0.6404
  158POPC  H16Z21172   2.164   3.652   2.729 -1.0502  1.5343 -1.2026
  159POPC     N21173   5.484   1.343   2.564 -0.1031 -0.2117  0.1309
  159POPC   C1221174   5.559   1.464   2.614  0.2801 -0.3943 -0.0056
  159POPC  H12A21178   5.604   1.435   2.708  0.2874 -1.1918 -0.2465
  159POPC  H12B21179   5.495   1.549   2.628 -0.3451 -1.1346  1.8386
  159POPC   C1321175   5.569   1.219   2.575 -0.3543 -0.3527  0.4777
  159POPC  H13A21180   5.639   1.223   2.493 -1.7230  2.7354 -0.6195
  159POPC  H13B21181   5.620   1.216   2.671  0.0967  1.1510  0.2883
  159POPC  H13C21182   5.507   1.132   2.555  1.1196 -1.6645  1.4847
  159POPC   C1421176   5.358   1.317   2.644 -0.4137  0.7054 -0.0528
  159POPC  H14A21183   5.322   1.216   2.635  0.7215  0.3924 -1.3105
  159POPC  H14B21184   5.396   1.327   2.745  0.6711 -0.7454 -0.2958
  159POPC  H14C21185   5.283   1.393   2.631 -1.5307 -0.1286  1.3905
  159POPC   C1521177   5.442   1.362   2.420 -0.3179  0.1215  0.2362
  159POPC  H15A21186   5.380   1.450   2.409 -0.8554 -0.3048 -0.1990
  159POPC  H15B21187   5.382   1.277   2.389 -2.0173  0.1654  3.1745
  159POPC  H15C21188   5.526   1.378   2.355  1.2598 -1.6863  1.7596
  159POPC   C1121189   5.667   1.517   2.519  0.3712  0.0800  0.3598
  159POPC  H11A21190   5.741   1.577   2.575  0.2558 -1.3480  2.1077
  159POPC  H11B21191   5.615   1.586   2.449  1.9674 -0.2947 -1.2310
  159POPC     P21192   5.843   1.466   2.333  0.1728  0.1145 -0.1930
  159POPC   O1321193   5.753   1.526   2.231  0.4735  0.2000 -0.4112
  159POPC   O1421194   5.918   1.350   2.279  0.5516  0.0016  0.5770
  159POPC   O1221195   5.747   1.419   2.451 -0.0173  0.2211 -0.3048
  159POPC   O1121196   5.942   1.572   2.400  0.1733 -0.1434  0.2130
  159POPC    C121197   6.066   1.512   2.438  0.1120 -0.1779  0.3590
  159POPC    HA21198   6.151   1.559   2.383 -0.9602 -0.0253 -1.2203
  159POPC    HB21199   6.074   1.403   2.417 -2.2400 -0.1588 -0.7654
  159POPC    C221200   6.094   1.541   2.586  0.7578  0.0266  0.2015
  159POPC    HS21201   6.194   1.498   2.607  0.3180 -0.9632  0.2656
  159POPC   O2121202   5.992   1.483   2.669  0.4399  0.1008 -0.1376
  159POPC   C2121203   6.000   1.351   2.681 -0.0156  0.1255  0.4588
  159POPC   O2221204   6.088   1.279   2.636 -0.2124  0.0528  0.1865
  159POPC   C2221205   5.885   1.314   2.773 -0.4882  0.3995 -0.0157
  159POPC   H2R21206   5.797   1.288   2.710  0.0099 -1.8507  0.1613
  159POPC   H2S21207   5.863   1.390   2.851 -0.6613  2.5830 -2.1650
  159POPC    C321208   6.111   1.693   2.607  0.0068  0.2126 -0.5312
  159POPC    HX21209   6.010   1.728   2.577  0.3252  0.7039 -1.0445
  159POPC    HY21210   6.191   1.729   2.539 -0.0862  0.4934 -0.4919
  159POPC   O3121211   6.132   1.735   2.741  0.0587 -0.2298 -0.3987
  159POPC   C3121212   6.255   1.720   2.791 -0.0464  0.0862 -0.0345
  159POPC   O3221213   6.335   1.649   2.732  0.0762 -0.1400  0.4022
  159POPC   C3221214   6.267   1.800   2.919 -0.1329 -0.5412  0.3681
  159POPC   H2X21215   6.196   1.752   2.990  1.5429 -1.7427  1.2707
  159POPC   H2Y21216   6.223   1.901   2.903  1.9407  0.2048 -0.6762
  159POPC   C2321217   5.923   1.182   2.841 -0.5704  0.4118  0.0529
  159POPC   H3R21218   5.999   1.194   2.922  0.0376  0.9928 -0.5953
  159POPC   H3S21219   5.963   1.111   2.766 -0.8065 -1.4990  1.6759
  159POPC   C2421220   5.792   1.124   2.895 -0.1225 -0.2696  0.4111
  159POPC   H4R21221   5.733   1.083   2.810  1.8911 -2.5300  0.0373
  159POPC   H4S21222   5.739   1.207   2.946  1.1972 -0.2259  1.7175
  159POPC   C2521223   5.814   1.015   3.000 -0.0336 -0.4687  0.1863
  159POPC   H5R21224   5.886   1.050   3.076  0.4349  1.3835 -1.0901
  159POPC   H5S21225   5.862   0.933   2.941  1.8897  1.2342 -0.6610
  159POPC   C2621226   5.683   0.963   3.060 -0.0195 -0.2491  0.4064
  159POPC   H6R21227   5.597   0.958   2.990 -0.1327  1.1337  0.4309
  159POPC   H6S21228   5.645   1.028   3.141 -1.9768  0.4570 -1.0362
  159POPC   C2721229   5.696   0.819   3.111 -0.0570 -0.2618  0.3804
  159POPC   H7R21230   5.779   0.772   3.055  1.7918  2.9421  0.2965
  159POPC   H7S21231   5.607   0.761   3.079  0.0813 -0.3591  0.1718
  159POPC   C2821232   5.733   0.818   3.259 -0.7795  0.2802  0.5674
  159POPC   H8R21233   5.672   0.895   3.310 -0.9364  0.8805 -0.5205
  159POPC   H8S21234   5.836   0.853   3.280  0.8298 -2.9992 -1.4117
  159POPC   C2921235   5.697   0.681   3.310  0.9906 -0.3477  0.1552
  159POPC   H9121236   5.739   0.604   3.244 -2.2637 -1.3865 -0.8047
  159POPC  C21021237   5.633   0.651   3.423  0.0685  0.3847 -0.1689
  159POPC  H10121238   5.614   0.545   3.446  1.9142 -0.0560 -0.5986
  159POPC  C21121239   5.573   0.750   3.520 -0.8785 -0.7793  0.4512
  159POPC  H11R21240   5.484   0.696   3.560  0.0130 -1.5586  1.4175
  159POPC  H11S21241   5.535   0.830   3.453 -0.8460 -2.6339 -1.8714
  159POPC  C21221242   5.670   0.815   3.619 -0.9755  0.2834 -0.1389
  159POPC  H12R21243   5.770   0.835   3.573 -0.8178  2.6120  1.1906
  159POPC  H12S21244   5.695   0.740   3.697  0.2990  2.0388  1.1833
  159POPC  C21321245   5.620   0.945   3.681 -0.1820  0.5912 -0.1392
  159POPC  H13R21246   5.516   0.923   3.712 -0.8894  0.5905 -2.4312
  159POPC  H13S21247   5.625   1.022   3.602  3.0357  0.4540 -0.1584
  159POPC  C21421248   5.714   0.994   3.792  0.0919  0.4340 -0.3025
  159POPC  H14R21249   5.686   1.092   3.835 -1.3166  0.3730 -1.0521
  159POPC  H14S21250   5.816   1.001   3.748  0.6879  0.9087  1.1219
  159POPC  C21521251   5.706   0.901   3.913 -0.2809  0.7447 -0.0866
  159POPC  H15R21252   5.754   0.802   3.893 -0.0582  0.8542 -0.0974
  159POPC  H15S21253   5.604   0.865   3.936  0.4879 -2.2452 -1.0111
  159POPC  C21621254   5.766   0.957   4.043  0.1824 -0.0261  0.0374
  159POPC  H16R21255   5.821   1.049   4.015 -0.4760  0.1173 -0.8321
  159POPC  H16S21256   5.842   0.890   4.089  0.8862  0.5402 -0.2943
  159POPC  C21721257   5.657   0.981   4.148  0.2072  0.3842 -0.0315
  159POPC  H17R21258   5.710   0.989   4.245  3.0194  0.0657 -1.4770
  159POPC  H17S21259   5.592   0.892   4.151  1.3807 -0.4317  1.8741
  159POPC  C21821260   5.575   1.109   4.127  0.1035  0.2486 -0.4593
  159POPC  H18R21261   5.527   1.100   4.028  3.4383  1.2713 -2.2542
  159POPC  H18S21262   5.647   1.193   4.122  2.8488 -1.9154  0.9711
  159POPC  H18T21263   5.499   1.134   4.204  1.7124 -2.7884  2.2803
  159POPC   C3321264   6.412   1.821   2.962 -0.2005 -0.1029  0.3886
  159POPC   H3X21265   6.474   1.874   2.887 -1.3262  0.6626 -0.0109
  159POPC   H3Y21266   6.454   1.718   2.968  0.0770 -0.1041 -1.3689
  159POPC   C3421267   6.435   1.863   3.107 -0.0627  0.3430  0.2367
  159POPC   H4X21268   6.428   1.974   3.115 -1.2788  0.3706 -1.0382
  159POPC   H4Y21269   6.534   1.826   3.141 -0.7266 -0.2717  1.5507
  159POPC   C3521270   6.334   1.797   3.201 -0.5555  0.3107 -0.3119
  159POPC   H5X21271   6.347   1.687   3.194 -3.2852 -0.0680  0.0607
  159POPC   H5Y21272   6.227   1.817   3.179 -0.4357  0.5594 -0.6738
  159POPC   C3621273   6.351   1.823   3.351  0.0763  0.1187 -0.3464
  159POPC   H6X21274   6.268   1.766   3.397  2.0458 -2.0806  0.5434
  159POPC   H6Y21275   6.329   1.931   3.365  0.4093 -0.0222  1.3087
  159POPC   C3721276   6.489   1.790   3.406 -0.0366  0.5041  0.1696
  159POPC   H7X21277   6.561   1.862   3.359  0.4045 -0.2943 -0.3790
  159POPC   H7Y21278   6.523   1.688   3.379 -1.1321 -0.2143  1.4357
  159POPC   C3821279   6.484   1.799   3.559  0.4391  0.2194  0.2057
  159POPC   H8X21280   6.425   1.882   3.604 -1.3534 -0.0547 -1.5622
  159POPC   H8Y21281   6.589   1.797   3.593  0.6803  0.0112 -0.5394
  159POPC   C3921282   6.419   1.677   3.624 -0.1534  0.2727 -0.2830
  159POPC   H9X21283   6.460   1.578   3.594 -1.5409 -0.5063  0.3127
  159POPC   H9Y21284   6.311   1.683   3.598 -0.1605  1.1538 -0.0644
  159POPC  C31021285   6.434   1.670   3.776 -0.5735  0.0574 -0.2475
  159POPC  H10X21286   6.386   1.764   3.811 -0.5505 -0.3690  0.9566
  159POPC  H10Y21287   6.539   1.687   3.809 -0.7673 -0.0089  0.4003
  159POPC  C31121288   6.358   1.553   3.837 -0.4789 -0.0348 -0.3076
  159POPC  H11X21289   6.279   1.525   3.763  1.0552 -2.2679 -1.1581
  159POPC  H11Y21290   6.303   1.603   3.919 -1.7506  0.1682 -1.2617
  159POPC  C31221291   6.437   1.429   3.880 -0.6011  0.0950  0.2942
  159POPC  H12X21292   6.500   1.406   3.791 -1.6530  2.1214 -1.0194
  159POPC  H12Y21293   6.370   1.344   3.903 -0.1761  0.1341  1.7052
  159POPC  C31321294   6.533   1.461   3.995 -0.1106 -0.6020  0.0817
  159POPC  H13X21295   6.620   1.527   3.972 -0.2448 -0.7994 -1.0165
  159POPC  H13Y21296   6.582   1.369   4.033  2.6086 -1.2523 -4.5679
  159POPC  C31421297   6.467   1.537   4.110  0.0259 -0.0501 -0.1980
  159POPC  H14X21298   6.365   1.500   4.136  0.2533  0.2769  1.2171
  159POPC  H14Y21299   6.454   1.640   4.071 -0.3516 -0.2853 -0.7056
  159POPC  C31521300   6.558   1.536   4.233 -0.2921  0.4107  0.0418
  159POPC  H15X21301   6.662   1.558   4.203  0.1823 -2.0998 -0.2735
  159POPC  H15Y21302   6.574   1.432   4.267  0.4249 -0.4610 -2.8151
  159POPC  C31621303   6.499   1.625   4.343  0.3709  0.3281  0.4661
  159POPC  H16X21304   6.556   1.601   4.435  0.2039 -2.1527 -0.0323
  159POPC  H16Y21305   6.390   1.615   4.357  0.2306 -1.0050 -1.4273
  159POPC  H16Z21306   6.522   1.728   4.306  0.4105  0.4226  0.7574
  160POPC     N21307   3.127   1.246   2.059  0.0700  0.5415 -0.1753
  160POPC   C1221308   3.080   1.270   2.200  0.6176 -0.0955  0.1163
  160POPC  H12A21312   3.028   1.179   2.226 -0.7574  0.5535 -0.3387
  160POPC  H12B21313   3.019   1.359   2.204 -0.9413 -1.1810  0.8795
  160POPC   C1321309   3.175   1.375   1.997  0.4138  0.5606  0.1316
  160POPC  H13A21314   3.253   1.417   2.058  1.2005 -3.4449  2.0588
  160POPC  H13B21315   3.209   1.363   1.895 -3.9584 -1.7679 -1.1793
  160POPC  H13C21316   3.089   1.439   2.008 -0.2819 -0.4760  0.8079
  160POPC   C1421310   3.227   1.134   2.072  0.0258  0.5275  0.0425
  160POPC  H14A21317   3.276   1.106   1.980  3.2823  2.4932  1.0544
  160POPC  H14B21318   3.306   1.163   2.140  1.4253 -0.0421 -1.2794
  160POPC  H14C21319   3.183   1.048   2.120  3.4523 -2.4735 -1.8834
  160POPC   C1521311   3.012   1.201   1.972 -0.0081 -0.0095  0.2110
  160POPC  H15A21320   2.960   1.117   2.016  0.1412  0.1261  0.6440
  160POPC  H15B21321   3.039   1.176   1.870 -1.9013 -0.7176 -0.1461
  160POPC  H15C21322   2.945   1.285   1.961 -1.0067 -0.9736 -1.2570
  160POPC   C1121323   3.170   1.317   2.314 -0.2482 -0.0239  0.7764
  160POPC  H11A21324   3.247   1.238   2.330  0.7240  0.8156  0.3328
  160POPC  H11B21325   3.106   1.333   2.403 -2.4679  0.2712 -0.8342
  160POPC     P21326   3.285   1.530   2.391  0.3374  0.0579 -0.1009
  160POPC   O1321327   3.319   1.664   2.338 -0.1452  0.1630 -0.1465
  160POPC   O1421328   3.390   1.460   2.468 -0.1716  0.0290  0.5773
  160POPC   O1221329   3.232   1.439   2.271  0.0685 -0.3463  0.3199
  160POPC   O1121330   3.150   1.541   2.476  0.4657  0.1598  0.0901
  160POPC    C121331   3.142   1.633   2.585  1.1892  0.5182 -0.1563
  160POPC    HA21332   3.041   1.627   2.631  1.9152 -0.4646  1.3601
  160POPC    HB21333   3.162   1.736   2.548 -1.4309  1.2200  0.2832
  160POPC    C221334   3.238   1.604   2.702  0.1219 -0.2552  0.5481
  160POPC    HS21335   3.344   1.607   2.667  0.0151  2.6454  0.3568
  160POPC   O2121336   3.212   1.471   2.749 -0.2850 -0.1724  0.5518
  160POPC   C2121337   3.297   1.431   2.842  0.5361  0.4713  0.0864
  160POPC   O2221338   3.399   1.491   2.873  0.0506  1.0873  0.5022
  160POPC   C2221339   3.257   1.295   2.897  0.6222  0.5420  0.3283
  160POPC   H2R21340   3.346   1.243   2.937 -0.7654 -1.5096  0.8639
  160POPC   H2S21341   3.219   1.242   2.806  0.1670  0.7996  0.3684
  160POPC    C321342   3.212   1.709   2.810 -0.5004  0.0452  0.1113
  160POPC    HX21343   3.233   1.808   2.764 -1.3021  0.6430  1.0129
  160POPC    HY21344   3.287   1.712   2.893 -0.8080 -0.8113  0.4194
  160POPC   O3121345   3.082   1.704   2.870 -0.2608 -0.1572  0.6219
  160POPC   C3121346   3.042   1.817   2.928 -0.0539  0.1954  0.0897
  160POPC   O3221347   3.108   1.919   2.933 -0.0823  0.2503 -0.6987
  160POPC   C3221348   2.908   1.795   2.997 -0.2452  0.1665 -0.2887
  160POPC   H2X21349   2.877   1.689   2.990 -0.4718  0.2204 -0.1131
  160POPC   H2Y21350   2.843   1.866   2.942  0.9935  1.6596  0.1374
  160POPC   C2321351   3.161   1.323   3.012  0.2533 -0.1587  0.1951
  160POPC   H3R21352   3.081   1.392   2.978 -0.2478 -0.2849  1.0705
  160POPC   H3S21353   3.212   1.369   3.099  1.1915  2.3192 -1.6279
  160POPC   C2421354   3.093   1.191   3.053 -0.2353  0.0290 -0.0027
  160POPC   H4R21355   3.182   1.128   3.073 -0.4294 -0.7813 -1.6342
  160POPC   H4S21356   3.028   1.144   2.976 -1.8862 -0.3847  1.6273
  160POPC   C2521357   3.000   1.201   3.174  0.0213 -0.6870  0.2510
  160POPC   H5R21358   2.969   1.101   3.213  0.1948 -0.2016  1.6450
  160POPC   H5S21359   2.916   1.267   3.145  2.8537  1.8494 -2.5132
  160POPC   C2621360   3.062   1.264   3.299  0.4356 -0.6018  0.0031
  160POPC   H6R21361   2.988   1.341   3.329 -1.3213 -1.9711 -0.7523
  160POPC   H6S21362   3.158   1.317   3.282 -0.4580  1.7408  1.9235
  160POPC   C2721363   3.074   1.154   3.405  0.2044 -0.3224  0.3183
  160POPC   H7R21364   3.159   1.089   3.375 -1.1259 -0.6540 -2.9971
  160POPC   H7S21365   2.982   1.093   3.419 -0.4398  0.8811  1.4569
  160POPC   C2821366   3.095   1.213   3.545  0.2394 -0.0466  0.1986
  160POPC   H8R21367   2.998   1.254   3.579  0.4844  1.8393 -1.3129
  160POPC   H8S21368   3.165   1.298   3.534  1.0805 -0.8175 -0.5245
  160POPC   C2921369   3.151   1.130   3.657  0.5510  0.0234  0.0953
  160POPC   H9121370   3.240   1.075   3.624  0.0159 -0.3740 -0.7042
  160POPC  C21021371   3.095   1.112   3.778  0.0823  0.6975 -0.0185
  160POPC  H10121372   3.141   1.034   3.840 -2.1815 -0.2635  0.5228
  160POPC  C21121373   2.972   1.167   3.845 -0.4841 -0.5553 -0.0281
  160POPC  H11R21374   2.903   1.084   3.871 -0.9953 -1.1953 -3.1838
  160POPC  H11S21375   2.918   1.244   3.787 -0.5559 -1.1203 -0.7230
  160POPC  C21221376   3.012   1.209   3.987 -0.5742  0.3577 -0.2724
  160POPC  H12R21377   3.078   1.298   3.990  0.2294 -0.2563  0.5174
  160POPC  H12S21378   3.069   1.128   4.037 -1.4746  1.3415  2.4543
  160POPC  C21321379   2.881   1.222   4.065 -0.2507 -0.0289  0.3349
  160POPC  H13R21380   2.836   1.124   4.091  0.6999 -0.8716 -1.1043
  160POPC  H13S21381   2.812   1.288   4.008 -1.5005 -0.8547  0.8453
  160POPC  C21421382   2.903   1.278   4.206  0.0664 -0.1942  0.3507
  160POPC  H14R21383   2.930   1.385   4.213 -1.1837  0.0694  1.2409
  160POPC  H14S21384   2.978   1.212   4.255 -1.9925 -2.0851  1.0528
  160POPC  C21521385   2.784   1.266   4.301  0.1455 -0.0608  0.4658
  160POPC  H15R21386   2.761   1.158   4.301 -0.8120  0.1303 -0.5406
  160POPC  H15S21387   2.701   1.309   4.240  1.3245  1.3601 -0.1875
  160POPC  C21621388   2.806   1.319   4.443  0.6618  0.2517  0.2702
  160POPC  H16R21389   2.892   1.253   4.470 -0.1503 -0.4384  1.1914
  160POPC  H16S21390   2.715   1.307   4.504  0.7023 -0.6336  0.1671
  160POPC  C21721391   2.850   1.464   4.463  0.3264  0.3803  0.0807
  160POPC  H17R21392   2.764   1.519   4.420  0.8596  0.0015 -1.4916
  160POPC  H17S21393   2.941   1.491   4.405 -0.1102 -1.7012 -1.6220
  160POPC  C21821394   2.886   1.502   4.607  0.2384  0.0583  0.1885
  160POPC  H18R21395   2.795   1.522   4.667  0.4249  0.4824  0.3315
  160POPC  H18S21396   2.950   1.593   4.598 -0.1907  0.2262 -1.2827
  160POPC  H18T21397   2.950   1.420   4.647 -1.0880 -0.8326  0.5238
  160POPC   C3321398   2.923   1.832   3.145  0.4542 -0.1607 -0.2725
  160POPC   H3X21399   2.819   1.843   3.185  0.1354  0.1172 -1.1710
  160POPC   H3Y21400   2.981   1.926   3.150  0.5339 -0.2374  0.2208
  160POPC   C3421401   3.002   1.727   3.223 -0.1926 -0.5141 -0.0863
  160POPC   H4X21402   3.093   1.697   3.166 -1.1959 -2.8625 -0.4893
  160POPC   H4Y21403   2.930   1.643   3.215  0.3901 -1.3058  2.6440
  160POPC   C3521404   3.025   1.769   3.368  0.0986 -0.0717 -0.2594
  160POPC   H5X21405   2.940   1.830   3.405  1.3222  1.7236 -0.3045
  160POPC   H5Y21406   3.113   1.836   3.379 -0.6783  0.6044  2.0959
  160POPC   C3621407   3.087   1.655   3.449  0.1513  0.0446 -0.1355
  160POPC   H6X21408   3.190   1.647   3.408 -0.3345 -0.2747 -1.3140
  160POPC   H6Y21409   3.027   1.562   3.452  0.8889 -0.3884  1.0741
  160POPC   C3721410   3.103   1.698   3.595 -0.1660 -0.2408 -0.0158
  160POPC   H7X21411   3.005   1.735   3.630 -1.0168 -0.3616 -2.1532
  160POPC   H7Y21412   3.177   1.781   3.598 -0.5727  0.1663 -0.9439
  160POPC   C3821413   3.135   1.585   3.693 -0.2701  0.3808  0.7358
  160POPC   H8X21414   3.229   1.537   3.659  0.6045  2.7698 -0.3934
  160POPC   H8Y21415   3.047   1.518   3.697  0.0395 -0.0612  0.3093
  160POPC   C3921416   3.161   1.624   3.838 -0.4137  0.6770  0.6826
  160POPC   H9X21417   3.177   1.527   3.889  1.1905  1.3861  1.5906
  160POPC   H9Y21418   3.071   1.669   3.886 -2.7955 -0.2957 -2.7473
  160POPC  C31021419   3.282   1.715   3.865  0.3662  0.0392 -0.6353
  160POPC  H10X21420   3.257   1.819   3.833 -0.0316 -0.2020 -1.1250
  160POPC  H10Y21421   3.367   1.674   3.806  0.9474  0.4169 -0.0676
  160POPC  C31121422   3.330   1.719   4.010 -0.0031  0.0192 -0.5107
  160POPC  H11X21423   3.333   1.614   4.045  2.3652  1.1588  3.0552
  160POPC  H11Y21424   3.251   1.764   4.074  0.6346 -2.0588  1.8138
  160POPC  C31221425   3.467   1.781   4.039 -0.1833  0.0788  0.2196
  160POPC  H12X21426   3.455   1.765   4.148 -1.8368  1.7532  0.3091
  160POPC  H12Y21427   3.463   1.890   4.018  0.4548  0.5495  2.3858
  160POPC  C31321428   3.579   1.703   3.970 -0.2462 -0.0195  0.2281
  160POPC  H13X21429   3.570   1.716   3.860 -0.7264  2.7474  0.5474
  160POPC  H13Y21430   3.581   1.595   3.997  0.4082 -0.1595 -0.3552
  160POPC  C31421431   3.709   1.767   4.021 -0.3167  0.5852 -0.3436
  160POPC  H14X21432   3.743   1.730   4.120  0.0349  0.1558 -0.6232
  160POPC  H14Y21433   3.698   1.876   4.041 -1.5872  0.5671 -0.8846
  160POPC  C31521434   3.830   1.748   3.930  0.1047  0.2278  0.2888
  160POPC  H15X21435   3.854   1.639   3.927 -0.3484  0.1345  0.0398
  160POPC  H15Y21436   3.921   1.796   3.972  0.0141 -0.1373  0.9042
  160POPC  C31621437   3.819   1.817   3.794 -0.1542  0.1134  0.2510
  160POPC  H16X21438   3.897   1.775   3.727 -1.0455 -1.8759  0.4064
  160POPC  H16Y21439   3.824   1.928   3.792 -2.5998  0.2432 -0.0976
  160POPC  H16Z21440   3.724   1.790   3.744  0.1131 -1.7468  0.7013
  161POPC     N21441   6.707   2.742   2.166 -0.0870  0.1140  0.0196
  161POPC   C1221442   6.745   2.888   2.152  0.1919  0.1061  0.6931
  161POPC  H12A21446   6.751   2.910   2.047  0.5388  1.0377  0.9007
  161POPC  H12B21447   6.847   2.901   2.184  0.9330 -1.6231 -0.9494
  161POPC   C1321443   6.723   2.688   2.306  0.7040  0.3181  0.0141
  161POPC  H13A21448   6.702   2.582   2.304 -0.8984  0.6279 -2.4332
  161POPC  H13B21449   6.827   2.692   2.334  0.8620  0.4709 -0.5830
  161POPC  H13C21450   6.662   2.741   2.379  2.4868  1.1531  0.9241
  161POPC   C1421444   6.565   2.729   2.118 -0.1788  0.3139  0.2349
  161POPC  H14A21451   6.542   2.627   2.092  0.8238  0.0602  0.3242
  161POPC  H14B21452   6.496   2.755   2.197 -0.1796  1.4200 -0.1262
  161POPC  H14C21453   6.552   2.801   2.039 -0.4273  0.9728  0.8656
  161POPC   C1521445   6.798   2.667   2.071  0.5953  0.9912 -0.0290
  161POPC  H15A21454   6.760   2.566   2.077 -0.5475  1.3716 -0.6254
  161POPC  H15B21455   6.899   2.688   2.103  1.1846 -2.3000  0.4102
  161POPC  H15C21456   6.789   2.693   1.967  0.7385 -1.3064 -0.6298
  161POPC   C1121457   6.648   2.983   2.224  0.5576  0.9213  0.1176
  161POPC  H11A21458   6.546   2.989   2.181 -0.1991 -0.7055  1.6091
  161POPC  H11B21459   6.702   3.076   2.199  2.7584 -0.2750  0.2971
  161POPC     P21460   6.734   3.054   2.460 -0.0538 -0.0256  0.1075
  161POPC   O1321461   6.673   3.187   2.481  0.7461  0.2771  0.5254
  161POPC   O1421462   6.874   3.059   2.411  0.0063 -0.3111  0.2524
  161POPC   O1221463   6.650   2.957   2.365  0.3092 -0.1659 -0.0736
  161POPC   O1121464   6.731   2.982   2.602  0.1610 -0.4016 -0.0774
  161POPC    C121465   6.608   2.945   2.664  0.0043 -0.0453 -0.1767
  161POPC    HA21466   6.632   2.854   2.723  1.2498 -0.3346 -1.1218
  161POPC    HB21467   6.534   2.937   2.582  2.2188 -0.9737 -2.1356
  161POPC    C221468   6.550   3.051   2.760 -0.1987 -0.7752  0.5114
  161POPC    HS21469   6.547   3.149   2.707 -0.2862 -1.6074 -1.0432
  161POPC   O2121470   6.635   3.053   2.875 -0.0221 -0.1509  0.3731
  161POPC   C2121471   6.618   3.156   2.957 -0.1903  0.0767  0.0528
  161POPC   O2221472   6.555   3.258   2.932  0.0547  0.1859 -0.1107
  161POPC   C2221473   6.689   3.121   3.087 -0.5391 -0.2147  0.1655
  161POPC   H2R21474   6.797   3.107   3.068 -0.3298  1.2020  0.2896
  161POPC   H2S21475   6.641   3.031   3.132  2.7917 -1.8267  0.6236
  161POPC    C321476   6.408   3.012   2.805 -0.5461 -0.3973 -0.2474
  161POPC    HX21477   6.342   3.022   2.716 -3.7333 -1.0989  1.9665
  161POPC    HY21478   6.370   3.078   2.886  0.9749 -1.8841  1.7436
  161POPC   O3121479   6.407   2.877   2.851  0.3562 -0.4327 -0.3134
  161POPC   C3121480   6.283   2.829   2.868  0.0846  0.2269 -0.4343
  161POPC   O3221481   6.183   2.893   2.842  0.0058  0.2487 -0.0836
  161POPC   C3221482   6.283   2.687   2.922 -1.2458  0.2866 -0.2722
  161POPC   H2X21483   6.330   2.638   2.834  1.1197  1.2754  0.4036
  161POPC   H2Y21484   6.176   2.659   2.935 -1.2149  0.2408 -0.1141
  161POPC   C2321485   6.659   3.236   3.184  0.2310  0.2771 -0.1808
  161POPC   H3R21486   6.655   3.336   3.136 -1.1078  0.0353 -0.5943
  161POPC   H3S21487   6.729   3.237   3.270  0.0013 -1.6689  0.0587
  161POPC   C2421488   6.520   3.213   3.243  0.0804  0.1103 -0.5958
  161POPC   H4R21489   6.520   3.113   3.291  0.8656  0.7818  0.8565
  161POPC   H4S21490   6.443   3.231   3.165 -1.0395  1.2476  0.7402
  161POPC   C2521491   6.502   3.311   3.359 -0.2569  0.1377 -0.6699
  161POPC   H5R21492   6.595   3.304   3.420 -0.5480 -0.4122 -0.2841
  161POPC   H5S21493   6.417   3.273   3.420 -0.5494  0.5305 -0.8341
  161POPC   C2621494   6.490   3.458   3.320 -0.5306  0.1632 -0.4888
  161POPC   H6R21495   6.398   3.455   3.259 -1.1259 -2.2149  0.5028
  161POPC   H6S21496   6.581   3.488   3.263 -0.9138 -0.1076 -1.2492
  161POPC   C2721497   6.478   3.554   3.440  0.7657  0.0121 -0.2285
  161POPC   H7R21498   6.558   3.529   3.513  2.3505  2.8336 -0.9306
  161POPC   H7S21499   6.382   3.522   3.486  1.5833 -0.4379  1.1794
  161POPC   C2821500   6.491   3.703   3.408 -0.4107  0.1434 -0.1087
  161POPC   H8R21501   6.421   3.740   3.330 -1.0905  0.7135  0.7647
  161POPC   H8S21502   6.590   3.740   3.375 -1.4097  1.7556 -1.3982
  161POPC   C2921503   6.460   3.773   3.536 -0.0059 -0.0050  0.0716
  161POPC   H9121504   6.534   3.754   3.615  1.2852  0.6297 -0.9655
  161POPC  C21021505   6.376   3.876   3.556  0.6565  0.5023  0.2544
  161POPC  H10121506   6.359   3.912   3.659  0.9332  2.5244 -0.3870
  161POPC  C21121507   6.301   3.952   3.451 -0.1207  0.2481  0.6218
  161POPC  H11R21508   6.198   3.962   3.492 -0.0819 -0.1190  0.8090
  161POPC  H11S21509   6.288   3.897   3.355 -4.2844  1.3426  0.4479
  161POPC  C21221510   6.361   4.089   3.419 -0.1174  0.0373 -0.2855
  161POPC  H12R21511   6.326   4.126   3.320 -1.6241  2.0229  0.9423
  161POPC  H12S21512   6.468   4.060   3.413 -0.0533  0.0206  0.8895
  161POPC  C21321513   6.330   4.196   3.524 -0.4297  0.0852 -0.4260
  161POPC  H13R21514   6.315   4.158   3.627  2.0853  0.7239  0.2119
  161POPC  H13S21515   6.231   4.241   3.502 -0.0677  0.2657 -1.7585
  161POPC  C21421516   6.432   4.310   3.534 -0.0954 -0.2687  0.1738
  161POPC  H14R21517   6.422   4.365   3.438 -1.3765  1.2508  1.1583
  161POPC  H14S21518   6.527   4.254   3.522  0.0057  0.0546 -0.5511
  161POPC  C21521519   6.421   4.403   3.655  0.3233  0.0718 -0.0477
  161POPC  H15R21520   6.519   4.450   3.677 -0.2215  2.2402 -2.0935
  161POPC  H15S21521   6.397   4.338   3.743  0.9341  0.0587  0.1105
  161POPC  C21621522   6.316   4.513   3.640 -0.5847 -0.7506  0.1798
  161POPC  H16R21523   6.221   4.476   3.597 -0.5670  1.4983 -1.8928
  161POPC  H16S21524   6.356   4.596   3.579 -0.6766 -1.3660 -0.7190
  161POPC  C21721525   6.269   4.586   3.766  0.0965 -0.0003  0.0039
  161POPC  H17R21526   6.354   4.638   3.814 -0.6924  0.2738  1.1466
  161POPC  H17S21527   6.230   4.507   3.834  0.7541 -1.0672 -0.8556
  161POPC  C21821528   6.166   4.696   3.736 -0.2830 -0.0901  0.9577
  161POPC  H18R21529   6.219   4.774   3.678  0.0274 -1.0378 -0.0409
  161POPC  H18S21530   6.124   4.743   3.827  1.1479  1.6985  0.7219
  161POPC  H18T21531   6.082   4.666   3.670  0.0575 -2.3343  1.5116
  161POPC   C3321532   6.368   2.670   3.048 -0.0858  0.4762 -1.0220
  161POPC   H3X21533   6.460   2.727   3.023  1.2930 -1.1786  0.1990
  161POPC   H3Y21534   6.399   2.563   3.053 -0.1530  0.4412 -1.3449
  161POPC   C3421535   6.299   2.716   3.177  1.0029 -0.4106 -0.1085
  161POPC   H4X21536   6.198   2.672   3.180  0.1425  1.5134  0.1148
  161POPC   H4Y21537   6.288   2.827   3.173  2.1710 -0.3497 -2.9374
  161POPC   C3521538   6.387   2.683   3.297  0.1900 -0.1830  0.5519
  161POPC   H5X21539   6.466   2.761   3.301  1.5981 -1.4795 -0.8613
  161POPC   H5Y21540   6.432   2.581   3.293 -0.5316 -0.5191  0.9141
  161POPC   C3621541   6.302   2.695   3.424 -0.8948 -0.4942 -0.1370
  161POPC   H6X21542   6.218   2.622   3.415 -1.2572 -0.0050 -0.7422
  161POPC   H6Y21543   6.271   2.801   3.432 -0.7736 -0.5352  0.9181
  161POPC   C3721544   6.384   2.665   3.550 -0.3276 -0.0808 -0.4061
  161POPC   H7X21545   6.490   2.694   3.537  0.4370 -1.2326  2.6899
  161POPC   H7Y21546   6.380   2.555   3.566  1.6968 -0.2707 -0.9813
  161POPC   C3821547   6.319   2.732   3.671 -0.1388 -0.4298 -0.1087
  161POPC   H8X21548   6.217   2.687   3.673  0.3244 -1.4529  1.1790
  161POPC   H8Y21549   6.309   2.841   3.653 -3.1787 -0.7406 -0.6714
  161POPC   C3921550   6.402   2.700   3.795 -0.2237 -0.4341 -0.0531
  161POPC   H9X21551   6.511   2.721   3.784 -0.1642 -1.1567 -0.9238
  161POPC   H9Y21552   6.398   2.589   3.805  0.2070 -0.5165 -0.7178
  161POPC  C31021553   6.354   2.773   3.920 -0.2870 -0.4911 -0.0442
  161POPC  H10X21554   6.243   2.771   3.926 -0.3760  3.0549  1.0745
  161POPC  H10Y21555   6.369   2.883   3.911  1.2241 -0.4061  2.8963
  161POPC  C31121556   6.414   2.715   4.048 -0.2712  0.3797  0.3500
  161POPC  H11X21557   6.392   2.607   4.062 -1.3772  0.2280 -2.2804
  161POPC  H11Y21558   6.374   2.777   4.131 -2.5641 -0.1228 -0.3627
  161POPC  C31221559   6.566   2.731   4.044 -0.1697 -0.5320  0.3824
  161POPC  H12X21560   6.583   2.828   3.993  0.6682 -0.6836  0.3655
  161POPC  H12Y21561   6.604   2.646   3.983  0.6672  0.1570 -0.0723
  161POPC  C31321562   6.638   2.726   4.179  0.0885  0.0990  0.2671
  161POPC  H13X21563   6.605   2.819   4.230  0.9153 -0.6817  2.3130
  161POPC  H13Y21564   6.749   2.726   4.173  0.0202 -0.3971 -1.0112
  161POPC  C31421565   6.604   2.616   4.279 -0.2997 -0.2376 -0.2340
  161POPC  H14X21566   6.500   2.616   4.318 -0.0806 -3.3587  0.5001
  161POPC  H14Y21567   6.659   2.647   4.371  1.8217 -0.9701 -1.2051
  161POPC  C31521568   6.654   2.476   4.242 -0.6863 -0.4093 -0.1071
  161POPC  H15X21569   6.751   2.476   4.187 -0.2198  1.4807  0.6813
  161POPC  H15Y21570   6.571   2.442   4.176  1.1948 -2.9587 -1.2348
  161POPC  C31621571   6.657   2.395   4.372  0.0326  0.5133  0.4528
  161POPC  H16X21572   6.556   2.399   4.416 -1.1246 -0.8639 -1.9764
  161POPC  H16Y21573   6.728   2.445   4.441  0.5223  1.0350 -0.4083
  161POPC  H16Z21574   6.680   2.289   4.350 -0.4692  0.8048 -1.5595
  162POPC     N21575   6.710   1.701   2.574 -0.5158 -0.0107  0.2578
  162POPC   C1221576   6.806   1.585   2.566  0.1825  0.5863 -0.0453
  162POPC  H12A21580   6.831   1.556   2.465  1.7326 -0.6321  0.6581
  162POPC  H12B21581   6.749   1.502   2.608  2.9446 -1.9881 -1.1919
  162POPC   C1321577   6.678   1.697   2.722  0.0768  0.3092  0.3948
  162POPC  H13A21582   6.772   1.721   2.769  1.6192 -4.0587 -0.2497
  162POPC  H13B21583   6.609   1.778   2.742 -1.7057 -0.1657 -3.4342
  162POPC  H13C21584   6.632   1.601   2.737 -2.3064  1.1147 -1.3551
  162POPC   C1421578   6.758   1.836   2.529  0.3261 -0.4493 -0.1733
  162POPC  H14A21585   6.783   1.842   2.424  1.9740 -0.3418  0.2083
  162POPC  H14B21586   6.687   1.916   2.548 -2.2369 -2.7498  0.1425
  162POPC  H14C21587   6.845   1.864   2.588 -0.6506  0.9827  0.6446
  162POPC   C1521579   6.591   1.680   2.483 -0.5383 -0.2640  0.3436
  162POPC  H15A21588   6.532   1.593   2.507 -2.4420  0.3546 -1.9253
  162POPC  H15B21589   6.627   1.679   2.381  2.3717 -1.1454  1.3228
  162POPC  H15C21590   6.523   1.763   2.491 -0.3273  0.3043 -2.9260
  162POPC   C1121591   6.938   1.592   2.643  0.0707 -0.3305  0.2484
  162POPC  H11A21592   7.011   1.514   2.611 -0.0584 -0.6115  0.6446
  162POPC  H11B21593   6.923   1.567   2.750 -0.5115 -4.5028 -0.7302
  162POPC     P21594   7.164   1.719   2.623  0.1116  0.2330  0.1582
  162POPC   O1321595   7.185   1.709   2.477  0.1446 -0.1207  0.1880
  162POPC   O1421596   7.226   1.607   2.698 -0.0522  0.1801  0.2143
  162POPC   O1221597   7.005   1.719   2.633  0.1156 -0.3567  0.2125
  162POPC   O1121598   7.208   1.861   2.682  0.2141  0.1673  0.2411
  162POPC    C121599   7.349   1.869   2.707  0.2772  0.1659 -0.1080
  162POPC    HA21600   7.373   1.977   2.703  2.1856 -0.1999  1.0438
  162POPC    HB21601   7.410   1.823   2.627 -2.1622  0.9259 -2.4858
  162POPC    C221602   7.395   1.819   2.845 -0.1192 -0.1789 -0.1001
  162POPC    HS21603   7.435   1.715   2.837  0.8642  0.0871  1.2917
  162POPC   O2121604   7.289   1.823   2.941 -0.3826 -0.2388 -0.3866
  162POPC   C2121605   7.303   1.735   3.040 -0.6376 -0.0653 -0.1962
  162POPC   O2221606   7.392   1.652   3.048 -0.1539  0.4158 -0.5677
  162POPC   C2221607   7.176   1.745   3.123 -0.4598  0.3680  0.0297
  162POPC   H2R21608   7.095   1.685   3.076 -0.2812  1.4604 -1.7431
  162POPC   H2S21609   7.132   1.847   3.119 -0.8194  0.2207  0.1624
  162POPC    C321610   7.523   1.890   2.891 -0.4825  0.2621  0.2314
  162POPC    HX21611   7.592   1.891   2.803  0.9110  1.0918  1.3151
  162POPC    HY21612   7.571   1.840   2.977  1.1216 -1.0650 -1.3785
  162POPC   O3121613   7.499   2.027   2.923 -0.3839  0.2004  0.5736
  162POPC   C3121614   7.601   2.074   2.994  0.0492 -0.3609  0.3254
  162POPC   O3221615   7.717   2.037   3.005  0.0681 -0.3698  0.0845
  162POPC   C3221616   7.539   2.195   3.062  0.5079  0.3000 -0.4264
  162POPC   H2X21617   7.429   2.180   3.060  0.3738  0.7720  1.6231
  162POPC   H2Y21618   7.561   2.295   3.019  0.6533 -0.0879 -1.2623
  162POPC   C2321619   7.206   1.698   3.265  0.0724 -0.7175 -0.4349
  162POPC   H3R21620   7.277   1.763   3.321 -0.3093 -0.5258 -0.1695
  162POPC   H3S21621   7.236   1.591   3.266 -2.0247 -1.3346  1.4049
  162POPC   C2421622   7.080   1.698   3.352  0.4013 -0.9421  0.0478
  162POPC   H4R21623   7.011   1.624   3.306 -0.0550  0.4828 -1.6233
  162POPC   H4S21624   7.032   1.798   3.344  0.4963 -0.8695  0.4038
  162POPC   C2521625   7.088   1.677   3.503 -0.3488 -0.4661  0.1568
  162POPC   H5R21626   7.133   1.761   3.561 -0.6421 -1.3029  1.6065
  162POPC   H5S21627   7.158   1.591   3.510  1.0775  0.6177 -0.4131
  162POPC   C2621628   6.960   1.649   3.582 -0.5697  0.1413  0.0189
  162POPC   H6R21629   6.920   1.551   3.547 -0.4235  0.4841 -1.1401
  162POPC   H6S21630   6.884   1.723   3.547 -1.4772 -0.3794  0.8744
  162POPC   C2721631   6.994   1.659   3.731 -0.0309  0.6272 -0.1344
  162POPC   H7R21632   7.103   1.641   3.743  0.3322  1.4275 -2.0230
  162POPC   H7S21633   6.940   1.587   3.796 -0.9858  2.1060  0.7315
  162POPC   C2821634   6.965   1.794   3.796 -0.0251  0.6183 -0.1137
  162POPC   H8R21635   7.029   1.868   3.744  0.2498 -1.1396 -2.3784
  162POPC   H8S21636   7.007   1.775   3.897 -1.0736 -2.0974 -0.1579
  162POPC   C2921637   6.823   1.843   3.802 -0.1311  0.2601  0.3431
  162POPC   H9121638   6.792   1.896   3.710 -0.3720 -1.4217 -0.5588
  162POPC  C21021639   6.744   1.846   3.910 -0.8392 -0.2416 -0.1527
  162POPC  H10121640   6.642   1.885   3.902 -1.3706 -1.5874 -0.0757
  162POPC  C21121641   6.785   1.797   4.046  0.1504 -0.2886 -0.4585
  162POPC  H11R21642   6.896   1.802   4.051  0.1012 -0.2875  1.0223
  162POPC  H11S21643   6.757   1.691   4.065  1.8579 -0.9659 -1.6468
  162POPC  C21221644   6.728   1.875   4.165  0.0046 -0.2996 -0.5217
  162POPC  H12R21645   6.617   1.863   4.171 -0.1040  0.3703 -1.0748
  162POPC  H12S21646   6.746   1.980   4.133 -2.0477  0.1628 -0.2374
  162POPC  C21321647   6.790   1.843   4.300 -0.7563 -0.4439 -0.2029
  162POPC  H13R21648   6.900   1.837   4.283 -0.6202 -0.9696  0.7935
  162POPC  H13S21649   6.742   1.752   4.342 -0.2933  0.0181  1.3603
  162POPC  C21421650   6.767   1.952   4.405 -0.4496 -0.2223 -0.3664
  162POPC  H14R21651   6.660   1.969   4.428 -0.4652  1.0104 -1.2904
  162POPC  H14S21652   6.809   2.045   4.361  1.2997 -1.6191 -1.7463
  162POPC  C21521653   6.832   1.920   4.540  0.1791  0.9469 -0.3792
  162POPC  H15R21654   6.803   1.994   4.618  0.8497  1.0671 -0.2420
  162POPC  H15S21655   6.942   1.930   4.540  0.1653  1.5463  2.7216
  162POPC  C21621656   6.822   1.779   4.600 -0.1553  1.1929  0.1448
  162POPC  H16R21657   6.892   1.715   4.543  0.6762  1.6064  0.7037
  162POPC  H16S21658   6.722   1.732   4.587  0.7164 -0.1426 -1.9371
  162POPC  C21721659   6.882   1.758   4.739 -0.0401 -0.1925 -0.1107
  162POPC  H17R21660   6.858   1.661   4.787  2.4148 -0.1960  1.1719
  162POPC  H17S21661   6.830   1.827   4.809  0.5527  0.4526 -0.2956
  162POPC  C21821662   7.034   1.777   4.748 -0.0516 -0.3096  0.3499
  162POPC  H18R21663   7.070   1.878   4.719 -0.6421 -0.7554 -2.0493
  162POPC  H18S21664   7.072   1.718   4.661 -2.4520 -1.6532  0.1620
  162POPC  H18T21665   7.078   1.761   4.848 -1.0557  0.2463  0.8964
  162POPC   C3321666   7.572   2.201   3.212  0.3988 -0.1874 -0.3827
  162POPC   H3X21667   7.553   2.101   3.256 -1.5184 -0.0934 -0.9422
  162POPC   H3Y21668   7.490   2.260   3.258 -0.1468 -1.2417 -0.0053
  162POPC   C3421669   7.704   2.268   3.252  0.1273  0.0261  0.1491
  162POPC   H4X21670   7.693   2.373   3.219  0.6618  0.6846  2.0110
  162POPC   H4Y21671   7.786   2.223   3.192  1.9256  2.5055  0.6646
  162POPC   C3521672   7.737   2.257   3.401 -0.2836 -0.4153  0.2091
  162POPC   H5X21673   7.841   2.294   3.411 -0.6864  0.3446  1.6827
  162POPC   H5Y21674   7.727   2.155   3.446 -0.4903 -1.6051 -2.4509
  162POPC   C3621675   7.662   2.360   3.485  0.1765 -0.0335  0.1511
  162POPC   H6X21676   7.558   2.322   3.496 -0.4111  1.2626 -0.8052
  162POPC   H6Y21677   7.658   2.461   3.439  1.3132 -0.8185 -1.7060
  162POPC   C3721678   7.716   2.392   3.625  0.6719 -0.4012  0.0482
  162POPC   H7X21679   7.649   2.473   3.662 -0.7967 -2.3607  1.8398
  162POPC   H7Y21680   7.818   2.432   3.612  0.0038  1.6421  0.7649
  162POPC   C3821681   7.707   2.274   3.723 -0.4872 -0.1326  0.2768
  162POPC   H8X21682   7.753   2.184   3.678  0.0565  1.1068 -1.7357
  162POPC   H8Y21683   7.599   2.248   3.727 -0.6167  0.2707 -0.3718
  162POPC   C3921684   7.748   2.297   3.868 -0.3062  0.6703  0.1061
  162POPC   H9X21685   7.696   2.381   3.918 -1.2049  0.9488 -1.2865
  162POPC   H9Y21686   7.855   2.326   3.872 -0.5844  1.8588 -0.9701
  162POPC  C31021687   7.730   2.171   3.953  0.1033  0.2235 -0.4661
  162POPC  H10X21688   7.796   2.183   4.042 -2.3768 -1.8363  1.7423
  162POPC  H10Y21689   7.774   2.082   3.903 -0.1569 -0.2568  0.1345
  162POPC  C31121690   7.588   2.134   3.998  0.2959 -0.1100 -0.1218
  162POPC  H11X21691   7.522   2.127   3.908 -0.4553 -1.8183  0.5368
  162POPC  H11Y21692   7.565   2.205   4.080 -0.9917 -1.6500  0.8631
  162POPC  C31221693   7.583   1.999   4.070  0.2686  0.3411  0.7181
  162POPC  H12X21694   7.657   2.017   4.152  0.9800  1.0972 -0.0803
  162POPC  H12Y21695   7.629   1.921   4.006 -1.1577  0.0066  0.0883
  162POPC  C31321696   7.448   1.973   4.137 -0.0569  0.5301  0.1348
  162POPC  H13X21697   7.372   1.941   4.062  0.1684  0.7867 -0.2045
  162POPC  H13Y21698   7.415   2.069   4.182 -0.2330  0.3896  0.3068
  162POPC  C31421699   7.445   1.856   4.235  0.5123  0.1418 -0.3065
  162POPC  H14X21700   7.490   1.872   4.336 -1.2309  0.6088  0.4027
  162POPC  H14Y21701   7.505   1.782   4.179 -0.7344 -0.9018 -0.2777
  162POPC  C31521702   7.309   1.792   4.262  0.3004  0.6023 -0.2640
  162POPC  H15X21703   7.308   1.686   4.298  0.3798  0.4264 -0.7722
  162POPC  H15Y21704   7.261   1.794   4.162 -1.7023  0.4315  0.6786
  162POPC  C31621705   7.228   1.870   4.364 -0.7407 -0.3793 -0.3325
  162POPC  H16X21706   7.232   1.978   4.341 -0.0828 -0.4210 -0.4233
  162POPC  H16Y21707   7.256   1.849   4.470 -2.2524  0.1372  0.1853
  162POPC  H16Z21708   7.122   1.834   4.360 -0.8313 -0.0857 -0.5444
  163POPC     N21709   6.881   7.796   2.095  0.4964  0.2725 -0.0173
  163POPC   C1221710   6.938   7.821   2.232  1.4579  0.1876 -0.3997
  163POPC  H12A21714   6.857   7.859   2.292  0.7342 -0.4956 -0.9343
  163POPC  H12B21715   7.012   7.899   2.235 -0.4984  2.0723 -0.1182
  163POPC   C1321711   6.749   7.722   2.095  0.7347 -0.1509 -0.0915
  163POPC  H13A21716   6.750   7.621   2.134  0.5774 -0.9740 -2.1666
  163POPC  H13B21717   6.671   7.785   2.134  2.3485  2.5469 -1.1379
  163POPC  H13C21718   6.728   7.701   1.991  1.8884  0.7002 -0.5113
  163POPC   C1421712   6.852   7.929   2.029  0.4344  0.0328 -0.4775
  163POPC  H14A21719   6.928   0.043   2.036  0.9587 -0.1041 -3.6755
  163POPC  H14B21720   6.837   7.913   1.923  0.2084  0.6079 -0.5327
  163POPC  H14C21721   6.759   0.006   2.066 -0.4443  0.0054 -2.5484
  163POPC   C1521713   6.982   7.714   2.018  0.4221  0.5569 -0.4233
  163POPC  H15A21722   6.948   7.698   1.917 -2.3635 -1.1272  0.7041
  163POPC  H15B21723   7.001   7.617   2.061 -0.7642 -0.3345 -1.8521
  163POPC  H15C21724   7.078   7.762   2.028  0.8026 -0.2873  0.0220
  163POPC   C1121725   6.995   7.700   2.306 -0.2770 -0.2601  0.2234
  163POPC  H11A21726   6.993   7.716   2.416  0.1706 -0.7489  0.3073
  163POPC  H11B21727   7.100   7.672   2.282 -0.1336 -0.4870  1.0628
  163POPC     P21728   6.846   7.507   2.401  0.0978  0.3148 -0.0452
  163POPC   O1321729   6.812   7.369   2.360  0.0735  0.3626 -0.1887
  163POPC   O1421730   6.740   7.586   2.469 -0.4228 -0.4154 -0.0023
  163POPC   O1221731   6.912   7.587   2.279  0.0169 -0.3035 -0.4952
  163POPC   O1121732   6.963   7.493   2.509 -0.0524 -0.1862  0.0554
  163POPC    C121733   7.049   7.380   2.502 -0.0570 -0.1779 -0.1391
  163POPC    HA21734   7.153   7.415   2.521 -0.3771  0.7274 -0.0764
  163POPC    HB21735   7.056   7.323   2.407  0.0555 -1.2481  0.5001
  163POPC    C221736   7.017   7.278   2.613 -0.3109 -0.0411 -0.0894
  163POPC    HS21737   6.931   7.221   2.572  0.8399 -1.2411 -0.8616
  163POPC   O2121738   6.985   7.358   2.727 -0.7871 -0.0727 -0.1999
  163POPC   C2121739   6.873   7.316   2.787 -0.3657 -0.1347  0.5519
  163POPC   O2221740   6.808   7.221   2.748 -0.0127  0.1048 -0.6577
  163POPC   C2221741   6.845   7.409   2.905 -0.2476 -0.1903  0.6238
  163POPC   H2R21742   6.746   7.458   2.895 -0.5597 -0.6706  1.3483
  163POPC   H2S21743   6.926   7.485   2.912 -0.9741  0.6639 -0.0796
  163POPC    C321744   7.132   7.181   2.640 -0.5505 -0.4573 -0.5530
  163POPC    HX21745   7.223   7.244   2.649 -1.7395  1.6302 -2.5640
  163POPC    HY21746   7.129   7.113   2.552  0.4748 -0.0737 -0.8952
  163POPC   O3121747   7.112   7.111   2.763  0.3965  0.2192 -0.0080
  163POPC   C3121748   7.053   6.993   2.743 -0.4185  0.6109  0.0294
  163POPC   O3221749   7.015   6.949   2.636 -0.0202  0.7285 -0.1643
  163POPC   C3221750   7.031   6.925   2.877 -0.2555  0.2357 -0.1320
  163POPC   H2X21751   7.074   6.823   2.883 -1.2177 -0.0862  1.6827
  163POPC   H2Y21752   6.921   6.922   2.897 -0.4534  1.0985 -1.0672
  163POPC   C2321753   6.858   7.342   3.041 -0.0756 -0.1367  0.6334
  163POPC   H3R21754   6.842   7.426   3.112  0.5162  0.8326 -0.3699
  163POPC   H3S21755   6.964   7.309   3.052  0.9877  1.9366 -2.7484
  163POPC   C2421756   6.754   7.235   3.076 -0.0932 -0.2533  0.2238
  163POPC   H4R21757   6.785   7.141   3.026 -0.4509 -1.7058  2.6806
  163POPC   H4S21758   6.659   7.273   3.032 -0.9695  0.7191  2.8460
  163POPC   C2521759   6.741   7.202   3.225 -0.6367  0.8057  0.4208
  163POPC   H5R21760   6.732   7.300   3.276 -0.7969  0.7823  0.4373
  163POPC   H5S21761   6.835   7.149   3.251 -0.5767 -0.5414 -2.2850
  163POPC   C2621762   6.622   7.108   3.244  0.2236 -0.3385  0.1881
  163POPC   H6R21763   6.651   7.005   3.211 -0.2169 -0.0512 -1.1359
  163POPC   H6S21764   6.541   7.148   3.179  1.0938  2.0121  0.5101
  163POPC   C2721765   6.576   7.118   3.389 -0.0958 -0.1790  0.0762
  163POPC   H7R21766   6.477   7.068   3.400  0.2054 -0.3618  2.3148
  163POPC   H7S21767   6.567   7.221   3.429  0.1026  0.5021 -1.5996
  163POPC   C2821768   6.656   7.034   3.489  0.8345  0.2357 -0.3189
  163POPC   H8R21769   6.764   7.058   3.476  0.9032  0.9117  1.3594
  163POPC   H8S21770   6.644   6.924   3.478  0.8329  0.2508 -0.4602
  163POPC   C2921771   6.604   7.075   3.624 -0.1610 -0.0571 -0.6123
  163POPC   H9121772   6.665   7.149   3.678 -1.3252 -0.3883  1.1805
  163POPC  C21021773   6.489   7.035   3.680  0.2025  0.3021  0.4168
  163POPC  H10121774   6.456   7.081   3.774 -1.6162  1.3027 -0.6787
  163POPC  C21121775   6.392   6.934   3.624  0.5541  0.2370 -0.0829
  163POPC  H11R21776   6.390   6.849   3.695  1.2454  0.0621 -0.2743
  163POPC  H11S21777   6.427   6.904   3.523  0.8857 -2.2716  0.7422
  163POPC  C21221778   6.249   6.989   3.614  0.2259 -0.5926  0.0351
  163POPC  H12R21779   6.213   7.050   3.699  3.9107  0.4663  0.9315
  163POPC  H12S21780   6.193   6.893   3.619  1.6769 -1.5751 -1.7486
  163POPC  C21321781   6.208   7.052   3.481  0.0037  0.0706  0.4187
  163POPC  H13R21782   6.210   6.974   3.401 -1.4297 -0.6287  1.0372
  163POPC  H13S21783   6.267   7.139   3.444 -0.1655 -0.7368 -1.8761
  163POPC  C21421784   6.060   7.093   3.486 -0.0619 -0.1941  0.6485
  163POPC  H14R21785   6.045   7.181   3.552  2.9230 -0.1646  1.3669
  163POPC  H14S21786   6.004   7.011   3.536 -0.7053  1.2674  2.4057
  163POPC  C21521787   6.002   7.113   3.346  0.5396  0.2995  0.4639
  163POPC  H15R21788   6.050   7.041   3.277  0.6825 -0.6928  1.5674
  163POPC  H15S21789   6.044   7.212   3.319  1.1390 -1.2603 -4.7174
  163POPC  C21621790   5.849   7.121   3.337  0.5780  0.6582  0.1273
  163POPC  H16R21791   5.794   7.026   3.354  1.3721  0.1976  0.1633
  163POPC  H16S21792   5.825   7.159   3.235 -0.5307 -0.1926  0.0586
  163POPC  C21721793   5.794   7.211   3.448 -0.2404 -0.1083  0.3501
  163POPC  H17R21794   5.854   7.304   3.452  0.3515 -0.5177  1.0767
  163POPC  H17S21795   5.806   7.156   3.544  0.2991 -0.0744  0.3066
  163POPC  C21821796   5.645   7.242   3.450 -0.2332 -0.0812  0.3427
  163POPC  H18R21797   5.612   7.273   3.552  1.7928  0.8604  0.7371
  163POPC  H18S21798   5.587   7.151   3.423 -0.6834  0.7147 -1.4586
  163POPC  H18T21799   5.621   7.314   3.368  1.9348  0.5969  0.2582
  163POPC   C3321800   7.107   6.996   2.989 -0.7080  0.5454 -0.0175
  163POPC   H3X21801   7.107   7.107   2.989  0.8203  0.5609 -0.2598
  163POPC   H3Y21802   7.216   6.976   2.979 -1.0628  0.3031 -3.8514
  163POPC   C3421803   7.068   6.939   3.126  0.0711 -0.3276 -0.1502
  163POPC   H4X21804   7.116   6.840   3.140 -1.2052 -0.8853  0.3948
  163POPC   H4Y21805   6.957   6.937   3.136  0.0283  0.4365 -0.4487
  163POPC   C3521806   7.129   7.025   3.236 -0.1381  0.1574 -0.4105
  163POPC   H5X21807   7.097   7.132   3.239  0.5598  0.4615 -2.8900
  163POPC   H5Y21808   7.239   7.019   3.226  0.0678  1.5713  0.6953
  163POPC   C3621809   7.096   6.969   3.375  0.2606  0.4970 -0.1767
  163POPC   H6X21810   7.102   6.858   3.384 -0.3281  0.2608 -2.3033
  163POPC   H6Y21811   6.995   7.004   3.406 -0.5550  0.2219 -2.4080
  163POPC   C3721812   7.191   7.020   3.484  0.5301 -0.4312  0.0250
  163POPC   H7X21813   7.216   7.127   3.469  0.3607 -0.6354 -1.9179
  163POPC   H7Y21814   7.291   6.977   3.464  0.5092 -0.3068 -0.3534
  163POPC   C3821815   7.144   6.982   3.625 -0.1335  0.0681 -0.0585
  163POPC   H8X21816   7.223   6.998   3.701  0.6965  2.1579 -1.3174
  163POPC   H8Y21817   7.120   6.874   3.613 -4.1707  1.1589 -2.6079
  163POPC   C3921818   7.008   7.034   3.671 -0.0122 -0.0779  0.4692
  163POPC   H9X21819   6.944   6.971   3.604  1.0018  1.7297 -2.3048
  163POPC   H9Y21820   6.997   7.144   3.659 -0.6850 -0.0793  1.0217
  163POPC  C31021821   6.989   7.013   3.821 -0.1571  0.1035  0.4760
  163POPC  H10X21822   7.066   7.077   3.868  0.4048 -2.7375  3.6416
  163POPC  H10Y21823   7.021   6.911   3.851 -0.8998 -0.0402  0.7958
  163POPC  C31121824   6.858   7.056   3.888 -0.1539  1.0504 -0.1258
  163POPC  H11X21825   6.774   7.000   3.842  0.0392 -0.1670  0.9935
  163POPC  H11Y21826   6.852   7.167   3.884 -2.3008  0.9685  0.3388
  163POPC  C31221827   6.860   7.028   4.038  0.1445 -0.7933 -0.4624
  163POPC  H12X21828   6.875   6.918   4.049 -0.1232 -0.9030 -1.1803
  163POPC  H12Y21829   6.767   7.071   4.081 -0.9441  1.2330 -4.6353
  163POPC  C31321830   6.980   7.085   4.113 -0.4218 -0.6880  0.3691
  163POPC  H13X21831   6.981   7.196   4.102 -0.1598 -0.6494  0.7592
  163POPC  H13Y21832   7.073   7.051   4.063 -0.8262  1.3242 -1.8149
  163POPC  C31421833   6.989   7.048   4.261  0.2749  0.0275  0.5122
  163POPC  H14X21834   6.982   6.940   4.285 -1.8590  0.1899  0.7556
  163POPC  H14Y21835   6.904   7.080   4.325 -1.0868 -2.6227  0.0890
  163POPC  C31521836   7.115   7.106   4.327 -0.0486  0.2083  0.9749
  163POPC  H15X21837   7.095   7.111   4.436  0.1635 -1.6227  1.1024
  163POPC  H15Y21838   7.114   7.210   4.288  0.6755  0.0293  0.4847
  163POPC  C31621839   7.245   7.037   4.288 -0.5412 -0.3012  0.1978
  163POPC  H16X21840   7.286   6.976   4.372 -1.1165 -2.0837 -0.7977
  163POPC  H16Y21841   7.323   7.107   4.251 -0.8050 -1.2334 -2.1661
  163POPC  H16Z21842   7.230   6.968   4.203 -1.1484  1.3745 -1.0617
  164POPC     N21843   7.364   6.890   2.115 -0.1853  0.1587 -0.0575
  164POPC   C1221844   7.475   6.795   2.077 -0.3115  0.0434 -0.1371
  164POPC  H12A21848   7.434   6.730   2.001 -3.3528  0.9264  0.7025
  164POPC  H12B21849   7.497   6.734   2.163  1.2549 -0.0578 -0.5909
  164POPC   C1321845   7.395   6.955   2.248  0.7894 -0.7031  0.1468
  164POPC  H13A21850   7.405   6.885   2.330 -0.1692 -0.8555  0.1351
  164POPC  H13B21851   7.477   7.024   2.234  1.0225 -1.0642 -0.2737
  164POPC  H13C21852   7.306   7.014   2.266 -0.2225 -1.6974 -1.4903
  164POPC   C1421846   7.349   7.000   2.013 -0.0297  0.0312 -0.2186
  164POPC  H14A21853   7.355   6.959   1.913  1.6151 -1.8957  0.6402
  164POPC  H14B21854   7.256   7.052   2.031  0.4114  0.7048  0.1300
  164POPC  H14C21855   7.432   7.068   2.024  0.9398 -1.2367  0.3972
  164POPC   C1521847   7.240   6.805   2.127  0.0694 -0.1745  0.2331
  164POPC  H15A21856   7.167   6.868   2.175 -0.9568 -1.4961  0.4590
  164POPC  H15B21857   7.245   6.719   2.193  0.2841  0.3808  0.9420
  164POPC  H15C21858   7.212   6.772   2.028 -0.7313  1.6679 -0.1653
  164POPC   C1121859   7.606   6.846   2.016 -0.1874  0.2745  0.3206
  164POPC  H11A21860   7.582   6.903   1.924  1.1658  0.2416 -0.0630
  164POPC  H11B21861   7.669   6.769   1.968 -0.0596 -0.7920  2.1649
  164POPC     P21862   7.788   7.004   2.052  0.1293  0.2521  0.0743
  164POPC   O1321863   7.727   7.115   1.975 -0.0937  0.4711  0.5623
  164POPC   O1421864   7.878   6.913   1.978 -0.5981 -0.5505  0.1701
  164POPC   O1221865   7.677   6.911   2.121  0.2516  0.1340  0.1112
  164POPC   O1121866   7.868   7.067   2.176  0.2426  0.1557  0.0492
  164POPC    C121867   7.923   6.976   2.272 -0.7411 -0.3382  0.1505
  164POPC    HA21868   0.049   7.036   2.303 -0.1788 -2.1942  2.4385
  164POPC    HB21869   7.956   6.878   2.232  0.3728  0.0720  0.0390
  164POPC    C221870   7.830   6.947   2.392 -0.3812 -0.8356  0.3106
  164POPC    HS21871   7.748   6.884   2.353 -0.1440 -1.5191  0.9212
  164POPC   O2121872   7.786   7.072   2.445  0.1669 -0.5314  0.0607
  164POPC   C2121873   7.667   7.056   2.504  0.0855 -0.3881 -0.0636
  164POPC   O2221874   7.593   6.960   2.493  0.1635 -0.4864  0.2343
  164POPC   C2221875   7.632   7.174   2.594  0.1174 -0.3055 -0.1607
  164POPC   H2R21876   7.537   7.219   2.557 -1.3263 -1.2175  2.3404
  164POPC   H2S21877   7.711   7.249   2.571 -1.1047  1.7327  2.0733
  164POPC    C321878   7.919   6.873   2.493  0.0639 -0.4323  0.2173
  164POPC    HX21879   0.055   6.926   2.497  0.4934 -1.0972 -0.3116
  164POPC    HY21880   7.948   6.772   2.457 -0.2210 -0.2853 -0.4363
  164POPC   O3121881   7.862   6.877   2.624 -0.0882 -0.0279  0.1405
  164POPC   C3121882   7.948   6.827   2.713  0.0232 -0.4053 -0.1762
  164POPC   O3221883   0.085   6.765   2.680  0.2831 -0.3390  0.3511
  164POPC   C3221884   7.889   6.839   2.853  0.1905  0.2213 -0.1572
  164POPC   H2X21885   7.823   6.751   2.872 -1.2369  1.4085  0.4704
  164POPC   H2Y21886   7.819   6.925   2.860 -0.5131 -0.2709 -1.0267
  164POPC   C2321887   7.631   7.148   2.744 -0.0059 -0.5296 -0.2005
  164POPC   H3R21888   7.655   7.239   2.803  1.3536 -1.7745  1.2173
  164POPC   H3S21889   7.699   7.063   2.767 -0.1389 -0.5256  0.2119
  164POPC   C2421890   7.498   7.102   2.804 -0.5599  0.4671 -0.6638
  164POPC   H4R21891   7.474   6.998   2.774 -2.5246  0.2958  1.3411
  164POPC   H4S21892   7.420   7.162   2.752 -0.2065  0.3659 -1.3203
  164POPC   C2521893   7.502   7.124   2.955  0.4571  0.5484 -0.7043
  164POPC   H5R21894   7.397   7.108   2.987  1.1779 -1.9566  0.5008
  164POPC   H5S21895   7.533   7.227   2.984 -2.1872  1.5013 -1.1043
  164POPC   C2621896   7.598   7.039   3.038 -0.5400 -0.0573 -0.1700
  164POPC   H6R21897   7.695   7.093   3.039 -0.5650  0.0072 -1.3521
  164POPC   H6S21898   7.604   6.943   2.982 -0.7793  0.3196 -0.8407
  164POPC   C2721899   7.556   7.030   3.185 -0.2848  0.5133 -0.0613
  164POPC   H7R21900   7.646   7.005   3.246  0.1207  0.6069 -0.6191
  164POPC   H7S21901   7.487   6.943   3.192  0.5663 -0.1000  0.8836
  164POPC   C2821902   7.506   7.152   3.261  0.2650  0.7570 -0.0856
  164POPC   H8R21903   7.465   7.128   3.361  0.7359  1.3221  0.2480
  164POPC   H8S21904   7.412   7.192   3.216  0.1350  0.5747  0.0210
  164POPC   C2921905   7.611   7.258   3.279  0.5950  0.4683 -0.3127
  164POPC   H9121906   7.658   7.292   3.186  0.1801  0.1159 -0.6492
  164POPC  C21021907   7.678   7.290   3.391 -0.1136  0.3098  0.1629
  164POPC  H10121908   7.761   7.362   3.387  0.2235 -0.0812  0.1251
  164POPC  C21121909   7.623   7.257   3.527  0.5060 -0.0914  0.3176
  164POPC  H11R21910   7.702   7.266   3.604 -1.9545  0.2992  2.8543
  164POPC  H11S21911   7.592   7.151   3.535  0.7561 -0.2086 -0.2074
  164POPC  C21221912   7.509   7.352   3.564  0.1690 -0.3726  0.0059
  164POPC  H12R21913   7.421   7.341   3.497  1.8006 -0.8364 -2.1029
  164POPC  H12S21914   7.538   7.454   3.529 -0.5964 -0.3174 -0.4810
  164POPC  C21321915   7.459   7.359   3.708  0.0944  0.0836 -0.0397
  164POPC  H13R21916   7.422   7.462   3.727  0.6809  0.4320 -0.7910
  164POPC  H13S21917   7.542   7.349   3.781  0.1347 -0.9804 -0.2181
  164POPC  C21421918   7.350   7.259   3.750  0.0442  0.1363 -0.0480
  164POPC  H14R21919   7.382   7.155   3.728 -0.2910  0.2962 -1.3266
  164POPC  H14S21920   7.264   7.270   3.681  1.3055  2.1938 -1.3823
  164POPC  C21521921   7.313   7.282   3.896 -0.2047  0.2157 -0.1226
  164POPC  H15R21922   7.400   7.326   3.950 -1.2724  2.5410 -0.2475
  164POPC  H15S21923   7.311   7.179   3.940 -0.5319 -1.1840 -3.2808
  164POPC  C21621924   7.187   7.355   3.942 -0.1926  0.2315 -0.1141
  164POPC  H16R21925   7.160   7.313   4.041  0.9848 -0.9379 -0.2696
  164POPC  H16S21926   7.106   7.331   3.869  1.0324  1.1491 -1.8288
  164POPC  C21721927   7.197   7.508   3.935 -0.5222  0.2776  0.3959
  164POPC  H17R21928   7.097   7.553   3.949 -0.2782  1.3529 -1.2220
  164POPC  H17S21929   7.230   7.538   3.834  1.1092  1.9870  1.4002
  164POPC  C21821930   7.290   7.572   4.038 -0.4693  0.0966  0.4613
  164POPC  H18R21931   7.394   7.537   4.018 -0.4857  1.1172 -1.5562
  164POPC  H18S21932   7.265   7.535   4.140  2.8695 -2.0943  0.5794
  164POPC  H18T21933   7.289   7.683   4.049 -1.2044 -0.0239  1.7261
  164POPC   C3321934   0.028   6.848   2.968 -0.4474  0.0972  0.4530
  164POPC   H3X21935   0.098   6.931   2.947 -2.3713  2.3425  2.6430
  164POPC   H3Y21936   0.089   6.756   2.967 -0.6977 -0.0690 -0.3995
  164POPC   C3421937   7.919   6.868   3.102 -0.2292  0.1810  0.5784
  164POPC   H4X21938   7.846   6.788   3.128 -0.0984  1.0133  3.5940
  164POPC   H4Y21939   7.860   6.962   3.094  0.5975  0.7377  1.0606
  164POPC   C3521940   0.052   6.894   3.219  0.0388 -0.2971  0.5027
  164POPC   H5X21941   0.121   6.972   3.179 -2.6103  1.6520 -0.4480
  164POPC   H5Y21942   0.105   6.797   3.223 -2.0129 -1.4754  0.1164
  164POPC   C3621943   7.943   6.909   3.354 -0.2329 -0.0366  0.3540
  164POPC   H6X21944   7.895   6.816   3.392  0.2456 -0.5230 -0.2107
  164POPC   H6Y21945   7.869   6.989   3.332  1.6411  1.4576 -0.6511
  164POPC   C3721946   0.082   6.951   3.460  0.3465 -0.3869 -0.0175
  164POPC   H7X21947   0.145   7.037   3.429 -1.7497  1.5811  1.0388
  164POPC   H7Y21948   0.155   6.867   3.468  2.1871  1.1137 -0.8093
  164POPC   C3821949   0.023   6.974   3.599  0.0065  0.1365 -0.2482
  164POPC   H8X21950   7.926   7.068   3.598 -0.8819 -0.3669  0.4433
  164POPC   H8Y21951   7.910   6.893   3.614 -0.0087 -0.2937 -2.2615
  164POPC   C3921952   0.127   7.006   3.706 -0.1885  0.6248 -0.2041
  164POPC   H9X21953   0.180   7.099   3.673 -0.0449 -0.4561 -3.1396
  164POPC   H9Y21954   0.193   6.919   3.725 -1.2979  0.3568  2.6923
  164POPC  C31021955   0.064   7.025   3.844 -0.3912 -0.6942 -0.1105
  164POPC  H10X21956   0.024   6.941   3.903 -0.4096 -0.4147  0.2772
  164POPC  H10Y21957   7.948   7.104   3.841 -0.4967 -0.6671  1.6685
  164POPC  C31121958   0.174   7.074   3.939 -0.7224  0.5843 -0.3752
  164POPC  H11X21959   0.251   6.995   3.931 -0.5374  0.7732 -0.4574
  164POPC  H11Y21960   0.143   7.055   4.044  0.2268  1.5499  0.0933
  164POPC  C31221961   0.207   7.223   3.928  0.1603  0.4455  0.3151
  164POPC  H12X21962   0.118   7.289   3.930  0.0352  0.2669  3.2387
  164POPC  H12Y21963   0.253   7.238   3.828  0.2767  2.6216  0.6612
  164POPC  C31321964   0.301   7.283   4.033 -0.2630  0.5793  0.6205
  164POPC  H13X21965   0.260   7.257   4.133  1.3862 -2.1504  0.6376
  164POPC  H13Y21966   0.291   7.393   4.021  1.0376  0.5882 -0.4292
  164POPC  C31421967   0.444   7.234   4.013 -0.4212  0.5392 -0.4631
  164POPC  H14X21968   0.438   7.192   3.910  0.0814 -0.1337 -0.2186
  164POPC  H14Y21969   0.456   7.151   4.086 -2.1457  3.2438  3.0336
  164POPC  C31521970   0.559   7.335   4.026 -0.0657  0.1498 -0.5574
  164POPC  H15X21971   0.554   7.379   4.128 -0.4088  0.2977 -0.6344
  164POPC  H15Y21972   0.543   7.405   3.941  1.0051  0.9599 -0.0958
  164POPC  C31621973   0.698   7.274   4.010 -0.0276 -0.3090  1.3391
  164POPC  H16X21974   0.704   7.207   3.921  2.9859  0.7877  0.6466
  164POPC  H16Y21975   0.734   7.201   4.085  0.6268 -0.8556  0.5042
  164POPC  H16Z21976   0.780   7.349   4.010  0.4244 -0.7838 -0.3433
  165POPC     N21977   2.867   4.242   2.052  0.4587 -0.1838 -0.3712
  165POPC   C1221978   2.858   4.195   2.195 -0.1468  0.2103 -0.2769
  165POPC  H12A21982   2.945   4.228   2.249  1.7157 -0.7629 -2.5992
  165POPC  H12B21983   2.857   4.087   2.202 -0.9781  0.2309  0.0064
  165POPC   C1321979   2.855   4.392   2.049  0.5037 -0.1677  0.1603
  165POPC  H13A21984   2.759   4.427   2.084  0.2623 -2.1917  1.5936
  165POPC  H13B21985   2.927   4.438   2.115 -0.9192 -0.0202  1.6323
  165POPC  H13C21986   2.871   4.432   1.949 -1.1463  2.4304  0.8761
  165POPC   C1421980   2.997   4.201   1.988  0.9216  0.4538  0.1611
  165POPC  H14A21987   2.982   4.096   1.970  1.4427  0.2551  0.8645
  165POPC  H14B21988   3.012   4.261   1.899  0.8811 -2.1709 -1.6715
  165POPC  H14C21989   3.079   4.214   2.058  0.3645 -2.0173  1.2873
  165POPC   C1521981   2.758   4.183   1.965 -0.1691  0.0858  0.2228
  165POPC  H15A21990   2.667   4.227   2.002 -0.0702 -0.8248  1.5843
  165POPC  H15B21991   2.757   4.076   1.976  0.8032  0.1824  1.4265
  165POPC  H15C21992   2.774   4.201   1.859  1.0856  2.2575  0.7384
  165POPC   C1121993   2.749   4.243   2.291 -0.3235 -0.9180  0.0984
  165POPC  H11A21994   2.781   4.348   2.309  3.4163 -1.4350 -2.7759
  165POPC  H11B21995   2.743   4.188   2.387 -1.6503 -0.0850  0.5124
  165POPC     P21996   2.524   4.362   2.252 -0.1604  0.2835 -0.1377
  165POPC   O1321997   2.389   4.314   2.287  0.1295  0.0002  0.6059
  165POPC   O1421998   2.532   4.444   2.130  0.3578 -0.3024 -0.5060
  165POPC   O1221999   2.620   4.236   2.228 -0.4824 -0.0519  0.3199
  165POPC   O1122000   2.586   4.458   2.364 -0.0184 -0.5627  0.5178
  165POPC    C122001   2.497   4.543   2.437  0.4495  0.3019  0.0961
  165POPC    HA22002   2.392   4.528   2.405  0.5347 -2.7820  1.0500
  165POPC    HB22003   2.534   4.647   2.433  4.5154 -0.9801  1.9039
  165POPC    C222004   2.490   4.494   2.583 -0.0719  0.0349 -0.0161
  165POPC    HS22005   2.593   4.476   2.620 -0.2442 -0.6543  0.1235
  165POPC   O2122006   2.410   4.376   2.579 -0.5501  0.3550  0.0431
  165POPC   C2122007   2.457   4.265   2.638  0.0509  0.4563 -0.2391
  165POPC   O2222008   2.561   4.253   2.701  0.2370  0.5878 -0.5230
  165POPC   C2222009   2.360   4.150   2.614  0.0355  0.3217  0.4543
  165POPC   H2R22010   2.378   4.116   2.510 -1.1810  0.0943  0.3097
  165POPC   H2S22011   2.255   4.183   2.625 -0.5139 -1.5311  0.8994
  165POPC    C322012   2.417   4.585   2.684  0.0736 -0.0552  0.1709
  165POPC    HX22013   2.309   4.598   2.663  0.3697  2.3629 -0.0070
  165POPC    HY22014   2.460   4.685   2.664  2.7462 -1.1967 -0.0236
  165POPC   O3122015   2.431   4.544   2.820  0.3668 -0.2242  0.0918
  165POPC   C3122016   2.553   4.557   2.872  0.1313  0.6485  0.4255
  165POPC   O3222017   2.640   4.629   2.827  0.0470  0.5964  0.1816
  165POPC   C3222018   2.572   4.479   3.001 -0.0195  0.0613  0.0922
  165POPC   H2X22019   2.681   4.461   3.014 -0.1475 -2.0996 -1.4832
  165POPC   H2Y22020   2.508   4.388   3.001  0.0697 -0.0019  0.1364
  165POPC   C2322021   2.380   4.035   2.713 -0.3089 -0.1588 -0.0354
  165POPC   H3R22022   2.488   4.007   2.720 -0.2984  0.2894  1.6878
  165POPC   H3S22023   2.334   3.937   2.686  1.4619 -0.9294 -0.3685
  165POPC   C2422024   2.327   4.063   2.853  0.3614 -0.2399  0.2354
  165POPC   H4R22025   2.219   4.038   2.849  0.4229 -0.4815  0.0566
  165POPC   H4S22026   2.339   4.173   2.861 -1.0506 -0.0072 -0.6877
  165POPC   C2522027   2.397   3.978   2.960  0.0082 -0.1938  0.5052
  165POPC   H5R22028   2.401   3.877   2.914 -0.4863 -0.9833  2.1621
  165POPC   H5S22029   2.321   3.970   3.041  0.1323  1.1023  0.7567
  165POPC   C2622030   2.531   4.034   3.007  0.1918  0.0649 -0.3145
  165POPC   H6R22031   2.510   4.102   3.092 -2.2876  0.8085 -1.4791
  165POPC   H6S22032   2.594   4.085   2.931  0.9377 -0.1567  0.1504
  165POPC   C2722033   2.622   3.925   3.064 -0.0742 -0.0306 -0.0739
  165POPC   H7R22034   2.640   3.848   2.987  0.9585 -2.7530  2.7947
  165POPC   H7S22035   2.580   3.874   3.154 -0.0830  0.0446 -0.0348
  165POPC   C2822036   2.756   3.988   3.104  0.0223  0.0289 -0.4961
  165POPC   H8R22037   2.787   4.057   3.023 -0.1491 -1.6424 -2.0298
  165POPC   H8S22038   2.836   3.912   3.116 -1.8407 -1.8875  0.1417
  165POPC   C2922039   2.774   4.050   3.239  0.2424 -0.2728 -0.3870
  165POPC   H9122040   2.755   3.986   3.327  1.2910  1.2316  0.9516
  165POPC  C21022041   2.840   4.165   3.258 -0.0247 -0.2502  0.4305
  165POPC  H10122042   2.845   4.199   3.363 -2.4721 -0.7148  0.7208
  165POPC  C21122043   2.893   4.264   3.158  0.2693 -0.1781  0.6550
  165POPC  H11R22044   2.927   4.353   3.215 -0.9988  0.7807 -0.0664
  165POPC  H11S22045   2.828   4.300   3.075  0.8153  1.8117  1.0730
  165POPC  C21222046   3.022   4.207   3.098  0.0161 -0.4188  0.3353
  165POPC  H12R22047   3.005   4.103   3.064 -0.8015  0.0689 -0.8004
  165POPC  H12S22048   3.094   4.210   3.182 -0.7124 -2.7150  1.0769
  165POPC  C21322049   3.086   4.291   2.987 -0.2685 -0.4640  0.1342
  165POPC  H13R22050   3.182   4.239   2.968  0.7942  1.4397  0.1938
  165POPC  H13S22051   3.111   4.392   3.028 -2.6179 -0.9872  3.0137
  165POPC  C21422052   3.004   4.315   2.860  0.0467  0.5866  0.1239
  165POPC  H14R22053   2.926   4.388   2.892 -1.6015 -0.4310 -1.4871
  165POPC  H14S22054   2.935   4.231   2.838  0.0404  0.6813 -0.2170
  165POPC  C21522055   3.082   4.370   2.741  0.0821 -0.1397 -0.1910
  165POPC  H15R22056   3.171   4.310   2.710  0.1676  0.1801 -0.5754
  165POPC  H15S22057   3.127   4.465   2.777 -0.9842 -0.4611  2.0444
  165POPC  C21622058   2.991   4.396   2.621  0.1523 -0.3503 -0.2913
  165POPC  H16R22059   2.886   4.420   2.650  0.3048 -0.2920  0.2132
  165POPC  H16S22060   2.973   4.310   2.553  0.0908  0.6121 -1.5113
  165POPC  C21722061   3.057   4.505   2.536  0.0827  0.2707  0.4427
  165POPC  H17R22062   3.162   4.478   2.511 -0.8105 -1.8231 -1.1926
  165POPC  H17S22063   3.047   4.597   2.597 -1.9625 -0.0586  0.6576
  165POPC  C21822064   2.980   4.538   2.408 -0.2014  0.2633  0.6101
  165POPC  H18R22065   2.877   4.563   2.441 -1.0986 -2.4013 -0.0196
  165POPC  H18S22066   2.984   4.445   2.347  1.4543  0.6285  0.1307
  165POPC  H18T22067   3.029   4.621   2.352 -1.8301 -0.7593 -2.4181
  165POPC   C3322068   2.522   4.567   3.116 -0.2032 -0.1609  0.1823
  165POPC   H3X22069   2.417   4.592   3.091  0.1579 -0.4301 -1.6861
  165POPC   H3Y22070   2.584   4.659   3.111 -1.1926  0.4391 -1.4508
  165POPC   C3422071   2.534   4.493   3.250 -0.0349 -0.0834  0.2105
  165POPC   H4X22072   2.638   4.456   3.260 -0.6163 -1.5853  0.8074
  165POPC   H4Y22073   2.469   4.403   3.241  0.9310 -0.7338 -0.3925
  165POPC   C3522074   2.507   4.583   3.370  0.1076 -0.8027  0.7837
  165POPC   H5X22075   2.583   4.664   3.379 -0.3959 -0.1012 -1.0394
  165POPC   H5Y22076   2.512   4.527   3.466 -0.6612 -1.3403  0.5082
  165POPC   C3622077   2.371   4.653   3.361  0.5256 -0.1266 -0.3322
  165POPC   H6X22078   2.294   4.575   3.344 -0.3271  0.2268  1.7213
  165POPC   H6Y22079   2.379   4.713   3.268  1.6366 -1.0007 -0.8172
  165POPC   C3722080   2.344   4.752   3.475  0.4758 -0.4736 -0.0447
  165POPC   H7X22081   2.237   4.777   3.460  0.5966  2.0348  2.8094
  165POPC   H7Y22082   2.402   4.846   3.461  0.5628 -0.5258 -0.0442
  165POPC   C3822083   2.378   4.698   3.615 -0.3535 -0.3424  0.2066
  165POPC   H8X22084   2.488   4.692   3.628 -0.4083  2.1751  2.2572
  165POPC   H8Y22085   2.346   4.592   3.626  1.7379 -0.6038  4.4473
  165POPC   C3922086   2.337   4.784   3.735 -0.1398 -0.1006  0.1086
  165POPC   H9X22087   2.226   4.794   3.738 -0.1092  0.2623  0.0058
  165POPC   H9Y22088   2.370   4.885   3.704 -1.2934 -0.4241 -2.2684
  165POPC  C31022089   2.378   4.728   3.871  0.3627  0.2458  0.1007
  165POPC  H10X22090   2.486   4.705   3.878  0.3181  0.3253  1.1482
  165POPC  H10Y22091   2.321   4.637   3.901 -2.6709  2.3605  1.0053
  165POPC  C31122092   2.358   4.834   3.980  0.9343  0.1438  0.3079
  165POPC  H11X22093   2.249   4.851   3.994  0.9017  0.4955 -0.3488
  165POPC  H11Y22094   2.403   4.930   3.946  0.4259  0.4094  0.3676
  165POPC  C31222095   2.402   4.776   4.114  0.0745 -0.2726  0.4148
  165POPC  H12X22096   2.513   4.773   4.112  0.0414 -1.1123 -0.7310
  165POPC  H12Y22097   2.376   4.668   4.116  0.1533 -0.2880  0.7345
  165POPC  C31322098   2.351   4.850   4.237 -0.2359 -0.0891  0.1736
  165POPC  H13X22099   2.242   4.825   4.239 -0.3416  0.3034 -0.5588
  165POPC  H13Y22100   2.361   4.961   4.230  0.5833 -0.0375  2.0190
  165POPC  C31422101   2.406   4.811   4.374  0.6398 -0.2403 -0.2247
  165POPC  H14X22102   2.341   4.838   4.459 -0.4299 -1.4908 -0.6332
  165POPC  H14Y22103   2.505   4.859   4.390 -0.4807  1.4105  1.9796
  165POPC  C31522104   2.433   4.660   4.385 -0.1214 -0.3914 -0.4143
  165POPC  H15X22105   2.510   4.633   4.310  0.9436  1.1118  0.1119
  165POPC  H15Y22106   2.342   4.604   4.356  0.0212 -0.0154 -1.6326
  165POPC  C31622107   2.490   4.613   4.519 -0.5931 -0.2919 -0.1766
  165POPC  H16X22108   2.590   4.658   4.537 -0.3246 -1.3744  1.1250
  165POPC  H16Y22109   2.506   4.504   4.524  0.4804 -0.1426 -0.1001
  165POPC  H16Z22110   2.414   4.639   4.595 -1.6095  1.9372 -1.8978
  166POPC     N22111   2.565   3.131   1.851  0.3095  0.4345 -0.2099
  166POPC   C1222112   2.687   3.190   1.785  0.6940  0.2419  0.3286
  166POPC  H12A22116   2.662   3.198   1.680 -1.1825  2.9468  0.9314
  166POPC  H12B22117   2.765   3.117   1.805  1.3489  0.4924 -1.1887
  166POPC   C1322113   2.457   3.237   1.850 -0.3270 -0.2091  0.5285
  166POPC  H13A22118   2.479   3.319   1.917 -0.3077 -1.2379  1.8170
  166POPC  H13B22119   2.457   3.275   1.749  1.3421 -1.6104 -0.0293
  166POPC  H13C22120   2.357   3.197   1.863 -1.2102  2.1648  1.3570
  166POPC   C1422114   2.527   3.014   1.764  0.3684  0.1824  0.1038
  166POPC  H14A22121   2.426   2.983   1.789 -0.0804  0.8135 -0.8822
  166POPC  H14B22122   2.534   3.050   1.662 -1.0005 -1.0595 -0.4579
  166POPC  H14C22123   2.603   2.942   1.790  0.1165  0.7076  2.3923
  166POPC   C1522115   2.595   3.075   1.987 -0.0231 -0.0714 -0.3432
  166POPC  H15A22124   2.681   3.009   1.980  0.9543  1.1072  0.3698
  166POPC  H15B22125   2.504   3.038   2.032 -0.2255  0.1680 -0.5571
  166POPC  H15C22126   2.630   3.157   2.049  1.4230 -1.9825  1.4589
  166POPC   C1122127   2.728   3.328   1.836  0.3621  0.3630  0.2628
  166POPC  H11A22128   2.655   3.401   1.795  0.3991 -0.8871 -2.1244
  166POPC  H11B22129   2.829   3.343   1.793  0.2634  0.7501  0.1578
  166POPC     P22130   2.729   3.462   2.054  0.1599 -0.1010  0.4027
  166POPC   O1322131   2.594   3.461   2.114  0.0477  0.2109  0.1578
  166POPC   O1422132   2.765   3.573   1.964 -0.3253 -0.0742  0.2408
  166POPC   O1222133   2.738   3.321   1.978 -0.3294 -0.0704  0.2905
  166POPC   O1122134   2.850   3.454   2.158  0.3572 -0.5469  0.1421
  166POPC    C122135   2.848   3.347   2.254  0.5306 -0.4065  0.3038
  166POPC    HA22136   2.938   3.285   2.236  0.5153 -0.5230  0.6339
  166POPC    HB22137   2.761   3.278   2.247 -1.4498  1.9916  0.5477
  166POPC    C222138   2.861   3.402   2.397 -0.2301 -0.1932  0.2931
  166POPC    HS22139   2.868   3.321   2.472  1.1936 -1.3948 -1.0908
  166POPC   O2122140   2.747   3.485   2.424 -0.5565 -0.5890  0.1346
  166POPC   C2122141   2.647   3.416   2.480 -0.7906 -0.2428  0.1431
  166POPC   O2222142   2.650   3.295   2.487 -0.2910 -0.2786 -0.5959
  166POPC   C2222143   2.558   3.507   2.563 -0.0726  0.4805  0.1257
  166POPC   H2R22144   2.457   3.510   2.519  1.0837 -1.2063 -2.7493
  166POPC   H2S22145   2.603   3.608   2.577 -0.9615  0.8361  0.4221
  166POPC    C322146   2.987   3.489   2.415 -0.2186 -0.1865  0.1846
  166POPC    HX22147   2.989   3.556   2.327  1.0954  0.2265  0.5204
  166POPC    HY22148   3.080   3.430   2.400  1.0428  1.9153 -0.4270
  166POPC   O3122149   2.994   3.567   2.535  0.3924  0.2506 -0.1356
  166POPC   C3122150   3.024   3.495   2.643 -0.0101 -0.0111 -0.1969
  166POPC   O3222151   3.044   3.375   2.649 -0.4146 -0.0652  0.1211
  166POPC   C3222152   3.019   3.582   2.768  1.2348 -0.0418 -0.1237
  166POPC   H2X22153   2.953   3.671   2.763  0.0711 -0.9519 -1.4204
  166POPC   H2Y22154   3.122   3.621   2.785  0.8165  2.0602 -2.0821
  166POPC   C2322155   2.536   3.460   2.707  0.1414  0.2499  0.0834
  166POPC   H3R22156   2.628   3.433   2.763  1.1444  0.1374 -1.5708
  166POPC   H3S22157   2.471   3.370   2.709 -0.3973  0.6368  0.0036
  166POPC   C2422158   2.472   3.557   2.806 -0.2346 -0.0104  0.0964
  166POPC   H4R22159   2.378   3.594   2.759 -0.3434  0.1852  0.4685
  166POPC   H4S22160   2.524   3.653   2.828 -0.4533 -0.2211  1.5853
  166POPC   C2522161   2.445   3.496   2.944 -0.4572  0.0275  0.0707
  166POPC   H5R22162   2.542   3.458   2.985  0.1614  1.3202 -0.1548
  166POPC   H5S22163   2.379   3.412   2.915 -2.0918  1.8827 -1.6980
  166POPC   C2622164   2.385   3.594   3.045 -0.2040  0.2209  0.0354
  166POPC   H6R22165   2.292   3.639   3.003 -1.1673  1.7574  3.6606
  166POPC   H6S22166   2.455   3.676   3.070  1.5868 -1.6522  1.3309
  166POPC   C2722167   2.335   3.526   3.173 -0.7526  0.1886 -0.1921
  166POPC   H7R22168   2.422   3.503   3.239 -1.7372 -0.6345  0.8252
  166POPC   H7S22169   2.276   3.434   3.155  1.5960 -1.1976 -1.0004
  166POPC   C2822170   2.243   3.614   3.257  0.1755  1.1051 -0.1240
  166POPC   H8R22171   2.284   3.718   3.252 -0.7217  1.5613  1.3738
  166POPC   H8S22172   2.236   3.590   3.366  0.1415  0.0560 -0.3557
  166POPC   C2922173   2.102   3.605   3.208  0.2286 -0.3278 -0.0314
  166POPC   H9122174   2.092   3.631   3.102 -2.5919  2.7229  0.8792
  166POPC  C21022175   1.999   3.592   3.294  0.6613 -0.0153  0.5394
  166POPC  H10122176   1.899   3.600   3.248  1.3677  1.0076 -0.8627
  166POPC  C21122177   1.997   3.587   3.444 -0.8043 -0.3512  0.5135
  166POPC  H11R22178   1.903   3.623   3.492 -0.7336  0.0203  0.3768
  166POPC  H11S22179   2.090   3.630   3.487 -0.4086  0.4853 -1.1360
  166POPC  C21222180   2.000   3.439   3.481  0.5908 -0.2957  0.6422
  166POPC  H12R22181   2.093   3.396   3.437 -0.8526  1.0814 -4.0753
  166POPC  H12S22182   1.923   3.382   3.424 -0.3531  2.4799 -0.9879
  166POPC  C21322183   2.007   3.407   3.630 -0.7454 -0.2582  0.7220
  166POPC  H13R22184   1.914   3.449   3.673 -1.0004  0.2691 -0.3250
  166POPC  H13S22185   2.099   3.463   3.659 -0.0929 -1.7392  1.5947
  166POPC  C21422186   2.032   3.260   3.668 -0.9507 -0.3806  0.3822
  166POPC  H14R22187   2.134   3.235   3.633 -0.4361  0.3458  1.3558
  166POPC  H14S22188   1.957   3.194   3.619  0.2885  0.0416 -2.1786
  166POPC  C21522189   2.022   3.233   3.818 -0.1280 -0.6683  0.3884
  166POPC  H15R22190   1.920   3.249   3.859 -0.5779 -1.6886 -0.3133
  166POPC  H15S22191   2.083   3.310   3.869  1.1777 -0.6638 -1.1515
  166POPC  C21622192   2.078   3.096   3.855  0.0491 -0.7823 -0.2909
  166POPC  H16R22193   2.187   3.105   3.836  0.1984 -0.2749  0.7747
  166POPC  H16S22194   2.022   3.022   3.794 -1.1388  1.6180 -2.2141
  166POPC  C21722195   2.069   3.040   3.997  0.2478 -0.0394  0.0174
  166POPC  H17R22196   2.136   3.109   4.053  2.4236 -0.7292 -1.6421
  166POPC  H17S22197   2.107   2.938   4.021  1.9404  0.4708 -0.4138
  166POPC  C21822198   1.929   3.047   4.057  0.0875 -1.0190 -0.2262
  166POPC  H18R22199   1.936   3.039   4.167  1.4519  0.9897 -0.1369
  166POPC  H18S22200   1.863   2.969   4.013 -0.3449 -0.6796 -0.1818
  166POPC  H18T22201   1.867   3.136   4.031  2.4036  0.3547 -1.1482
  166POPC   C3322202   2.981   3.495   2.887 -0.1628  0.0756 -0.4782
  166POPC   H3X22203   3.069   3.441   2.927  1.2422  4.0887  2.2683
  166POPC   H3Y22204   2.903   3.418   2.869 -0.0463 -0.2518  0.3635
  166POPC   C3422205   2.924   3.581   3.001 -0.0282 -0.5616  0.0721
  166POPC   H4X22206   2.847   3.630   2.938  0.0404 -0.3182  0.1796
  166POPC   H4Y22207   2.995   3.658   3.036  1.6858 -1.4335 -1.4391
  166POPC   C3522208   2.859   3.498   3.113 -0.8261 -0.3812 -0.2518
  166POPC   H5X22209   2.936   3.425   3.146 -0.1457  1.0563  1.4311
  166POPC   H5Y22210   2.775   3.449   3.060 -0.6537 -0.2768 -0.6322
  166POPC   C3622211   2.806   3.582   3.229  0.1441 -0.3241  0.1570
  166POPC   H6X22212   2.753   3.514   3.299 -0.2301  0.4561  0.6447
  166POPC   H6Y22213   2.741   3.661   3.184  0.6661  0.8684  1.4497
  166POPC   C3722214   2.907   3.647   3.324 -0.1166  0.7423 -0.2833
  166POPC   H7X22215   2.950   3.735   3.272  1.8755 -0.1739 -0.2444
  166POPC   H7Y22216   2.985   3.571   3.348 -2.5385 -1.7989 -0.1970
  166POPC   C3822217   2.854   3.679   3.464  0.0946 -0.2968  0.0431
  166POPC   H8X22218   2.829   3.583   3.514  1.3284  0.8359  2.9450
  166POPC   H8Y22219   2.755   3.729   3.453  0.6948  1.3200  1.8232
  166POPC   C3922220   2.946   3.770   3.546  0.3899 -0.7650  0.2297
  166POPC   H9X22221   2.922   3.870   3.505  1.3856 -1.1611 -1.3545
  166POPC   H9Y22222   3.048   3.751   3.506  1.9796  0.2403  3.5767
  166POPC  C31022223   2.938   3.765   3.699 -0.2075 -0.9188  0.1932
  166POPC  H10X22224   2.835   3.787   3.736 -0.3740 -0.3988 -0.5575
  166POPC  H10Y22225   3.000   3.844   3.745 -0.1888 -0.9679  0.2513
  166POPC  C31122226   2.989   3.629   3.748  0.3603 -0.7310  0.1256
  166POPC  H11X22227   3.081   3.603   3.693  1.1318 -0.2368  1.1507
  166POPC  H11Y22228   2.914   3.549   3.735  0.2860 -0.8268  1.0667
  166POPC  C31222229   2.997   3.639   3.901 -0.0955 -0.8234  0.1564
  166POPC  H12X22230   2.902   3.686   3.934 -0.6017 -2.9683  1.8907
  166POPC  H12Y22231   3.074   3.708   3.942 -1.2840  0.5782  0.0596
  166POPC  C31322232   3.019   3.510   3.980 -0.5713 -0.8849  0.1916
  166POPC  H13X22233   3.108   3.461   3.935 -1.2327 -3.3292  1.4516
  166POPC  H13Y22234   2.928   3.448   3.964 -0.8846 -0.8104  1.5962
  166POPC  C31422235   3.058   3.536   4.126  0.6688 -0.1815 -0.2589
  166POPC  H14X22236   3.004   3.626   4.162 -3.6534 -3.0743  0.9044
  166POPC  H14Y22237   3.165   3.565   4.136  0.8412 -1.2716  1.1655
  166POPC  C31522238   3.026   3.414   4.213  0.0090  0.1014 -0.1007
  166POPC  H15X22239   3.043   3.434   4.321  2.0271 -0.5364 -0.2820
  166POPC  H15Y22240   3.095   3.329   4.191  1.5401  1.6205 -1.3081
  166POPC  C31622241   2.881   3.366   4.208  0.2953 -0.7387 -0.4096
  166POPC  H16X22242   2.878   3.306   4.114  1.3055 -2.4065  0.6000
  166POPC  H16Y22243   2.810   3.450   4.217  0.3144 -0.7313 -0.3210
  166POPC  H16Z22244   2.868   3.298   4.295 -2.0820  1.6829  1.1902
  167POPC     N22245   1.506   1.495   2.117 -0.5028  0.4013  0.2266
  167POPC   C1222246   1.589   1.454   2.236 -0.1371  0.1049 -0.1284
  167POPC  H12A22250   1.662   1.532   2.250  1.4792 -1.2451 -0.8293
  167POPC  H12B22251   1.647   1.364   2.220 -2.3131 -1.3032 -0.2020
  167POPC   C1322247   1.408   1.386   2.083  0.2979 -0.3350  0.2403
  167POPC  H13A22252   1.456   1.292   2.104 -1.3827 -1.6795 -1.6321
  167POPC  H13B22253   1.317   1.408   2.138 -0.2692  0.3256 -0.9372
  167POPC  H13C22254   1.379   1.389   1.978  2.9181  0.4418 -0.4931
  167POPC   C1422248   1.430   1.624   2.131 -0.6513  0.3514 -0.1258
  167POPC  H14A22255   1.381   1.646   2.037  1.5167  0.4749 -1.2601
  167POPC  H14B22256   1.353   1.615   2.206 -2.3951 -0.0241 -1.9017
  167POPC  H14C22257   1.494   1.708   2.155 -2.3338  1.2561  1.3597
  167POPC   C1522249   1.608   1.509   2.006 -0.1935 -0.0161  0.4549
  167POPC  H15A22258   1.561   1.552   1.919  0.0946 -1.9911 -0.7007
  167POPC  H15B22259   1.652   1.412   1.986  2.3581  1.1643  0.1863
  167POPC  H15C22260   1.693   1.574   2.021 -0.8035  0.9029 -0.0183
  167POPC   C1122261   1.516   1.424   2.367 -0.1321  0.0289 -0.1430
  167POPC  H11A22262   1.592   1.413   2.447 -1.4705  0.9527  1.2901
  167POPC  H11B22263   1.452   1.334   2.355 -0.9207  0.6923 -0.9609
  167POPC     P22264   1.301   1.529   2.461  0.1205 -0.1619  0.1124
  167POPC   O1322265   1.215   1.496   2.345 -0.1950  0.1513  0.2546
  167POPC   O1422266   1.264   1.654   2.531  0.5188 -0.0147  0.0615
  167POPC   O1222267   1.451   1.544   2.409  0.0511  0.0837 -0.0181
  167POPC   O1122268   1.309   1.408   2.565  0.0885 -0.3018 -0.0489
  167POPC    C122269   1.191   1.392   2.644  0.1051  0.6622  0.1760
  167POPC    HA22270   1.158   1.285   2.644 -0.7508  0.9101  1.8467
  167POPC    HB22271   1.100   1.431   2.593 -0.4250 -0.4344  0.2540
  167POPC    C222272   1.206   1.448   2.786 -0.0117  0.2067  0.3721
  167POPC    HS22273   1.138   1.536   2.789  1.2252  1.1702  0.9772
  167POPC   O2122274   1.344   1.481   2.809  0.0987 -0.2037  0.2963
  167POPC   C2122275   1.366   1.579   2.896  0.1325  0.2389 -0.2094
  167POPC   O2222276   1.282   1.657   2.938 -0.3409 -0.1243 -0.4805
  167POPC   C2222277   1.515   1.584   2.925  0.1270  0.3347 -0.1961
  167POPC   H2R22278   1.567   1.666   2.872 -0.8354  0.6598 -0.6527
  167POPC   H2S22279   1.555   1.483   2.899  0.4389  0.3776  0.1168
  167POPC    C322280   1.169   1.336   2.884 -0.2011  0.1027  0.1823
  167POPC    HX22281   1.236   1.249   2.864 -2.4246 -0.8582 -3.5913
  167POPC    HY22282   1.077   1.284   2.850 -0.1775 -1.3372  2.2207
  167POPC   O3122283   1.178   1.373   3.022 -0.3991  0.1251  0.1891
  167POPC   C3122284   1.069   1.438   3.060 -0.5493  0.2675 -0.4794
  167POPC   O3222285   0.964   1.440   2.997 -1.0514 -0.3887  0.3244
  167POPC   C3222286   1.093   1.522   3.185  0.0841  0.0177 -0.4318
  167POPC   H2X22287   1.203   1.528   3.198  0.1160 -0.5060 -0.4438
  167POPC   H2Y22288   1.056   1.469   3.275 -0.0421  0.0669 -0.4533
  167POPC   C2322289   1.538   1.597   3.076 -0.2107  0.4808 -0.1571
  167POPC   H3R22290   1.491   1.516   3.135 -1.4567  1.9883  0.9694
  167POPC   H3S22291   1.502   1.697   3.108  1.3557  1.1551 -0.4682
  167POPC   C2422292   1.684   1.590   3.120 -0.1959  0.2595 -0.2387
  167POPC   H4R22293   1.736   1.642   3.036 -0.6927  0.1243 -0.6315
  167POPC   H4S22294   1.720   1.485   3.113  1.8505  0.8267  1.1076
  167POPC   C2522295   1.716   1.647   3.258 -0.2614 -0.1330 -0.0622
  167POPC   H5R22296   1.675   1.748   3.282 -1.1943 -1.3891  4.0402
  167POPC   H5S22297   1.827   1.656   3.256 -0.4846  2.8757 -2.1469
  167POPC   C2622298   1.658   1.565   3.373 -0.5108 -0.4611 -0.4222
  167POPC   H6R22299   1.652   1.457   3.345  0.9242 -0.2507 -1.6119
  167POPC   H6S22300   1.548   1.581   3.381 -0.3477 -0.3814  2.1520
  167POPC   C2722301   1.725   1.595   3.508 -0.4915 -0.7315 -0.3711
  167POPC   H7R22302   1.709   1.702   3.533  2.0779 -0.3654 -0.1549
  167POPC   H7S22303   1.833   1.579   3.487  0.0185  0.2293  1.4721
  167POPC   C2822304   1.675   1.501   3.618 -0.3737  0.1129  0.4075
  167POPC   H8R22305   1.695   1.396   3.588  1.5237  0.5717  0.0469
  167POPC   H8S22306   1.565   1.501   3.633 -0.4336  0.7682 -0.0159
  167POPC   C2922307   1.751   1.533   3.743  0.0981 -0.3589  0.2421
  167POPC   H9122308   1.859   1.511   3.745  0.3724  0.8815 -0.4699
  167POPC  C21022309   1.708   1.583   3.860  0.1420  0.0721  0.0743
  167POPC  H10122310   1.774   1.613   3.942  0.2057 -0.2837  0.1545
  167POPC  C21122311   1.562   1.615   3.868  0.0854 -0.3246  0.6538
  167POPC  H11R22312   1.489   1.543   3.824 -2.1541  0.4094  3.0111
  167POPC  H11S22313   1.557   1.708   3.807  0.2935 -0.1947  0.8371
  167POPC  C21222314   1.510   1.643   4.009  0.4571  0.2408  0.6803
  167POPC  H12R22315   1.403   1.660   3.983  0.2514 -1.2504  0.4851
  167POPC  H12S22316   1.559   1.728   4.060 -0.9745  0.6346  1.4372
  167POPC  C21322317   1.515   1.516   4.095 -0.2534 -0.3353 -0.1136
  167POPC  H13R22318   1.616   1.468   4.097 -0.7168 -1.3449 -0.5539
  167POPC  H13S22319   1.448   1.443   4.044 -1.8901  1.8620 -1.1846
  167POPC  C21422320   1.464   1.546   4.236  0.1569  0.2194 -0.0776
  167POPC  H14R22321   1.425   1.451   4.280  2.6584 -0.0278  1.7396
  167POPC  H14S22322   1.383   1.622   4.236 -0.6427 -0.6144 -1.0125
  167POPC  C21522323   1.564   1.599   4.339  0.3234 -0.5934  0.1872
  167POPC  H15R22324   1.598   1.698   4.302  1.5232 -1.6039 -1.5138
  167POPC  H15S22325   1.647   1.526   4.341  0.5658 -0.3277 -0.0032
  167POPC  C21622326   1.505   1.629   4.476  0.5619  0.0173  0.1556
  167POPC  H16R22327   1.413   1.690   4.460  0.8415  0.2210 -0.6793
  167POPC  H16S22328   1.578   1.685   4.538  0.6531  1.6839 -1.4112
  167POPC  C21722329   1.451   1.504   4.546 -0.0544  0.1643 -0.0545
  167POPC  H17R22330   1.367   1.455   4.492  3.0619 -2.0550 -3.0999
  167POPC  H17S22331   1.415   1.534   4.647 -1.2755 -0.5180 -0.2798
  167POPC  C21822332   1.553   1.392   4.561 -0.6337 -0.3374  0.1424
  167POPC  H18R22333   1.514   1.310   4.626 -3.1240  2.2182  1.9858
  167POPC  H18S22334   1.639   1.428   4.621  0.5289 -0.4476 -1.4382
  167POPC  H18T22335   1.583   1.344   4.465 -1.3713  1.2850 -0.9212
  167POPC   C3322336   1.033   1.661   3.164  0.6382  0.2559 -0.4472
  167POPC   H3X22337   0.924   1.646   3.148  1.1223 -2.4817 -1.3897
  167POPC   H3Y22338   1.078   1.719   3.080  2.9947 -0.2995  0.4077
  167POPC   C3422339   1.056   1.756   3.281  0.2125 -0.3256  0.1079
  167POPC   H4X22340   1.007   1.702   3.365 -1.4860 -0.0118 -0.6699
  167POPC   H4Y22341   1.001   1.848   3.254  0.8182  0.1019  0.3085
  167POPC   C3522342   1.204   1.782   3.312  0.1899 -0.4784  0.3469
  167POPC   H5X22343   1.256   1.829   3.227  1.0832  1.0075  1.6936
  167POPC   H5Y22344   1.258   1.686   3.324 -0.2035 -0.7641 -0.1274
  167POPC   C3622345   1.229   1.875   3.431 -0.5603 -0.1315  0.2386
  167POPC   H6X22346   1.201   1.818   3.522 -0.7991  1.3815  1.1317
  167POPC   H6Y22347   1.169   1.966   3.410 -0.8285 -0.5296 -0.7644
  167POPC   C3722348   1.378   1.908   3.443 -0.5571 -0.2879  0.6508
  167POPC   H7X22349   1.402   1.958   3.346  1.8525  1.0304  1.8799
  167POPC   H7Y22350   1.438   1.816   3.455 -0.0442  0.0571  0.7571
  167POPC   C3822351   1.417   2.027   3.531  0.3188 -0.1206  0.0425
  167POPC   H8X22352   1.399   2.131   3.495  2.2762  0.0550 -0.4705
  167POPC   H8Y22353   1.527   2.015   3.526 -0.0874 -3.8579 -1.4376
  167POPC   C3922354   1.363   2.006   3.672  0.2324  0.3909  0.0880
  167POPC   H9X22355   1.403   1.916   3.724 -1.1087 -1.2017 -1.5902
  167POPC   H9Y22356   1.253   2.000   3.655  0.4512 -2.7485 -0.6090
  167POPC  C31022357   1.387   2.122   3.768  0.5811  0.1493  0.2931
  167POPC  H10X22358   1.309   2.121   3.847 -1.6669 -1.4911 -1.8799
  167POPC  H10Y22359   1.367   2.216   3.712 -0.1739  0.9731  1.8970
  167POPC  C31122360   1.520   2.125   3.845  0.3949 -0.0432  0.6239
  167POPC  H11X22361   1.594   2.177   3.781  0.9031 -0.8156  0.5859
  167POPC  H11Y22362   1.547   2.019   3.865 -2.2602 -0.9335 -0.2895
  167POPC  C31222363   1.516   2.187   3.985  0.4305  0.3237  0.4644
  167POPC  H12X22364   1.621   2.197   4.018  0.4226 -1.6394  1.1592
  167POPC  H12Y22365   1.454   2.109   4.035  0.6639  0.0922  0.3931
  167POPC  C31322366   1.444   2.321   4.003 -0.2052  0.0065  0.3143
  167POPC  H13X22367   1.463   2.365   4.103  0.7461 -0.1563  0.2130
  167POPC  H13Y22368   1.333   2.323   4.002 -0.2153  3.9141 -2.6059
  167POPC  C31422369   1.495   2.430   3.908  0.2806  0.2166  0.8182
  167POPC  H14X22370   1.485   2.394   3.804 -0.7006  0.5215  0.8095
  167POPC  H14Y22371   1.600   2.462   3.925 -0.3014  1.2923  2.5050
  167POPC  C31522372   1.405   2.553   3.918 -0.2278 -0.0827 -0.0617
  167POPC  H15X22373   1.430   2.595   4.018  1.6058  0.5963 -0.7906
  167POPC  H15Y22374   1.298   2.524   3.926 -0.6027  1.4445  0.5254
  167POPC  C31622375   1.443   2.656   3.812  0.2318  0.0630  0.2474
  167POPC  H16X22376   1.542   2.638   3.764 -0.5712 -0.6086 -1.1720
  167POPC  H16Y22377   1.443   2.756   3.861 -1.7519  0.4684 -0.5691
  167POPC  H16Z22378   1.370   2.661   3.730  0.3798 -0.5297  0.0766
  168POPC     N22379   7.907   0.300   2.182 -0.3233  0.3443 -0.3662
  168POPC   C1222380   7.869   0.235   2.051 -0.0976 -0.0409 -0.2406
  168POPC  H12A22384   7.906   0.134   2.055 -1.3628 -0.5703 -1.5693
  168POPC  H12B22385   7.936   0.277   1.977  0.9522  0.5300  1.0148
  168POPC   C1322381   7.874   0.447   2.178 -0.0437  0.4145 -0.0808
  168POPC  H13A22386   7.768   0.452   2.161 -0.5190  1.8680  2.9507
  168POPC  H13B22387   7.894   0.494   2.273  1.5201  1.8679 -1.0820
  168POPC  H13C22388   7.925   0.497   2.096 -1.0455  1.1844 -0.2395
  168POPC   C1422382   7.846   0.227   2.299 -0.1656  0.4493 -0.2187
  168POPC  H14A22389   7.740   0.227   2.282 -0.0621  2.8004 -1.1489
  168POPC  H14B22390   7.883   0.126   2.306  1.8971  1.2210  0.3110
  168POPC  H14C22391   7.864   0.286   2.388 -1.2227  0.1122  0.2276
  168POPC   C1522383   0.095   0.292   2.200 -0.4061 -0.1049  0.4946
  168POPC  H15A22392   0.141   0.369   2.139 -2.4514  1.6114  1.0410
  168POPC  H15B22393   0.125   0.191   2.180 -1.8800 -0.5037  0.2568
  168POPC  H15C22394   0.137   0.322   2.295 -2.2049 -0.4623  1.4293
  168POPC   C1122395   7.725   0.237   2.000 -0.2026  0.2481  0.0656
  168POPC  H11A22396   7.720   0.201   1.895  1.3714 -1.2425  0.4867
  168POPC  H11B22397   7.687   0.341   2.007  1.4936  0.8843  0.1471
  168POPC     P22398   7.503   0.210   2.139 -0.0586 -0.0918  0.1792
  168POPC   O1322399   7.440   0.110   2.227 -0.2817 -0.1422 -0.0383
  168POPC   O1422400   7.423   0.287   2.041  0.0605  0.2063  0.3144
  168POPC   O1222401   7.637   0.152   2.073 -0.1258  0.0435 -0.0788
  168POPC   O1122402   7.568   0.314   2.242 -0.6383  0.2271  0.2274
  168POPC    C122403   7.489   0.405   2.318 -0.7451  0.0709  0.3034
  168POPC    HA22404   7.381   0.381   2.326 -0.5788  0.0135  2.5410
  168POPC    HB22405   7.499   0.498   2.258  0.0477  0.6048  1.2539
  168POPC    C222406   7.544   0.434   2.459 -0.0828 -0.1235  0.0869
  168POPC    HS22407   7.653   0.453   2.450  0.0188  0.8303  2.8102
  168POPC   O2122408   7.507   0.323   2.541  0.1824  0.3279  0.8142
  168POPC   C2122409   7.617   0.279   2.603  0.4182  0.0263  0.1888
  168POPC   O2222410   7.725   0.337   2.604  0.5111 -0.1490  0.7874
  168POPC   C2222411   7.579   0.157   2.685  0.3462  0.2833  0.5448
  168POPC   H2R22412   7.490   0.111   2.635  2.1711  0.2269 -2.8106
  168POPC   H2S22413   7.535   0.191   2.781 -2.2774 -0.7679 -0.2161
  168POPC    C322414   7.490   0.563   2.523 -0.0871  0.0618 -0.2888
  168POPC    HX22415   7.379   0.559   2.532 -0.0106 -1.1077  0.1340
  168POPC    HY22416   7.509   0.654   2.462  0.8301 -0.6110 -1.0121
  168POPC   O3122417   7.534   0.576   2.658 -0.1690  0.4724 -0.2989
  168POPC   C3122418   7.655   0.631   2.669  0.1354 -0.2154 -0.1827
  168POPC   O3222419   7.729   0.648   2.573  0.0909 -0.2442 -0.2231
  168POPC   C3222420   7.677   0.681   2.811  0.4991 -0.2384 -0.2308
  168POPC   H2X22421   7.579   0.690   2.862 -0.4280 -1.3952 -1.7342
  168POPC   H2Y22422   7.740   0.772   2.802  0.6091 -0.3728 -0.8857
  168POPC   C2322423   7.699   0.062   2.687  0.1544  0.0366  0.4498
  168POPC   H3R22424   7.787   0.122   2.718 -0.2188  1.7747 -1.7058
  168POPC   H3S22425   7.718   0.020   2.586  1.3272 -0.5755  0.9125
  168POPC   C2422426   7.695   7.909   2.788 -0.0496 -0.0661  0.3737
  168POPC   H4R22427   7.721   7.955   2.886  1.3195  2.4588 -1.1225
  168POPC   H4S22428   7.779   7.842   2.759  2.2967  2.1638  1.8129
  168POPC   C2522429   7.567   7.825   2.783 -0.2034  0.1585  0.5399
  168POPC   H5R22430   7.554   7.766   2.690  1.4060  1.7445 -0.7251
  168POPC   H5S22431   7.474   7.886   2.780  0.3456  0.8999 -3.1872
  168POPC   C2622432   7.565   7.720   2.895  0.1247 -0.0410  0.3589
  168POPC   H6R22433   7.606   7.756   2.991 -0.2937  0.5282  0.3270
  168POPC   H6S22434   7.628   7.637   2.856  0.5813 -1.0879  3.2602
  168POPC   C2722435   7.429   7.652   2.916 -0.0280 -0.1168 -0.8024
  168POPC   H7R22436   7.399   7.595   2.826  0.3861 -1.6227 -0.0149
  168POPC   H7S22437   7.355   7.734   2.922  0.8118  0.7714 -2.2160
  168POPC   C2822438   7.425   7.570   3.045 -0.3206  1.4614  0.1965
  168POPC   H8R22439   7.455   7.631   3.134  0.6564  1.0035  0.1894
  168POPC   H8S22440   7.499   7.487   3.036 -2.2843 -0.2236 -0.6813
  168POPC   C2922441   7.293   7.500   3.059  0.2633  0.1743 -0.6887
  168POPC   H9122442   7.285   7.432   2.973  1.3487 -1.0896  0.1787
  168POPC  C21022443   7.186   7.521   3.137  0.4197  0.3663 -0.5249
  168POPC  H10122444   7.093   7.469   3.109 -0.3657  0.7319  1.3459
  168POPC  C21122445   7.184   7.600   3.264  0.1436 -0.0967 -0.2421
  168POPC  H11R22446   7.103   7.676   3.258  0.5100  0.4863  1.6261
  168POPC  H11S22447   7.286   7.642   3.277 -0.6713  1.5977  0.8047
  168POPC  C21222448   7.160   7.508   3.384  0.3427  0.0901 -0.0572
  168POPC  H12R22449   7.233   7.525   3.466  0.8804  1.6420 -0.8486
  168POPC  H12S22450   7.172   7.401   3.356  1.4961  0.1061  0.3675
  168POPC  C21322451   7.014   7.513   3.432  0.3559  0.1225 -0.0170
  168POPC  H13R22452   6.945   7.461   3.362 -0.3374 -0.2349  0.9309
  168POPC  H13S22453   6.978   7.615   3.457  0.0312 -0.4987  2.1386
  168POPC  C21422454   7.009   7.438   3.565 -0.2677 -0.7852 -0.5451
  168POPC  H14R22455   7.090   7.482   3.627  1.3563  0.1872 -3.2607
  168POPC  H14S22456   7.044   7.334   3.548  1.3734 -0.3348  0.0581
  168POPC  C21522457   6.874   7.429   3.638 -0.2269  0.1476 -0.3510
  168POPC  H15R22458   6.896   7.373   3.731  1.4893  1.3567  0.0006
  168POPC  H15S22459   6.817   7.365   3.568  0.2135 -0.2760 -0.3257
  168POPC  C21622460   6.807   7.562   3.671  0.1307  0.3867 -0.5716
  168POPC  H16R22461   6.764   7.609   3.580  1.5863  0.2639 -1.3344
  168POPC  H16S22462   6.890   7.628   3.703 -0.5240  1.5008 -1.1237
  168POPC  C21722463   6.713   7.559   3.792  0.7095 -0.6440 -0.1481
  168POPC  H17R22464   6.698   7.663   3.828 -1.9346 -0.6641 -1.0458
  168POPC  H17S22465   6.771   7.499   3.865 -3.5344 -2.2706  2.0963
  168POPC  C21822466   6.580   7.488   3.763  0.2614  0.1650 -0.0720
  168POPC  H18R22467   6.602   7.386   3.727 -1.6019  0.0170 -0.8154
  168POPC  H18S22468   6.511   7.546   3.698 -0.9144 -2.7951 -1.5706
  168POPC  H18T22469   6.529   7.474   3.860  0.4128 -0.5896 -0.0988
  168POPC   C3322470   7.773   0.594   2.893 -0.4837 -0.4761  0.6777
  168POPC   H3X22471   7.867   0.566   2.841 -0.3499  0.1133  0.5994
  168POPC   H3Y22472   7.719   0.500   2.917  2.6169 -2.1001  1.5601
  168POPC   C3422473   7.798   0.647   3.034  0.4135  0.5731  0.1360
  168POPC   H4X22474   7.697   0.659   3.079  0.9089  1.1329  1.1291
  168POPC   H4Y22475   7.852   0.744   3.036  0.0829  0.7371  3.4145
  168POPC   C3522476   7.870   0.535   3.108  0.2954  0.2555 -0.2311
  168POPC   H5X22477   0.003   0.504   3.059 -0.9659 -2.7360 -0.9453
  168POPC   H5Y22478   7.797   0.451   3.119  0.3850  0.1447 -0.4766
  168POPC   C3622479   7.913   0.574   3.250 -0.1644  0.0374 -0.0296
  168POPC   H6X22480   7.838   0.637   3.302 -0.3357 -0.4408  0.3046
  168POPC   H6Y22481   0.037   0.644   3.250 -1.1195  1.3036 -1.6101
  168POPC   C3722482   0.008   0.461   3.336  0.5495 -0.0381 -0.5662
  168POPC   H7X22483   0.063   0.403   3.259  1.0400  0.7223 -0.7931
  168POPC   H7Y22484   7.890   0.392   3.371  0.3551 -0.6611 -2.1307
  168POPC   C3822485   0.098   0.505   3.452  0.1935 -0.8622  0.0257
  168POPC   H8X22486   0.162   0.594   3.434 -0.9446 -0.2113 -0.8552
  168POPC   H8Y22487   0.164   0.418   3.473 -0.5580 -2.1506 -2.6805
  168POPC   C3922488   0.021   0.541   3.579  0.1818  0.0606 -0.2417
  168POPC   H9X22489   7.900   0.468   3.585 -0.6231  1.0439  1.4179
  168POPC   H9Y22490   7.941   0.644   3.574 -0.4839 -0.1799 -0.0581
  168POPC  C31022491   0.115   0.535   3.699  0.4655 -0.0984 -0.4684
  168POPC  H10X22492   0.192   0.614   3.691  0.8381 -0.6344 -2.4396
  168POPC  H10Y22493   0.172   0.440   3.704  0.3167 -0.2554 -1.7214
  168POPC  C31122494   0.041   0.533   3.834  0.2473  0.3167 -0.5796
  168POPC  H11X22495   7.949   0.437   3.850 -0.0007  0.3708 -0.9333
  168POPC  H11Y22496   7.935   0.620   3.839  0.6955  0.6175  1.0596
  168POPC  C31222497   0.129   0.551   3.958 -0.0158 -0.6998 -0.2336
  168POPC  H12X22498   0.075   0.623   4.024  0.1782  1.2911 -2.1674
  168POPC  H12Y22499   0.223   0.607   3.936  0.3973 -1.1651  0.3494
  168POPC  C31322500   0.151   0.423   4.038  0.0611 -0.3895  0.2451
  168POPC  H13X22501   0.219   0.362   3.974  0.4799  1.1493 -0.7947
  168POPC  H13Y22502   0.054   0.374   4.060  0.4390 -1.0693  0.4063
  168POPC  C31422503   0.236   0.425   4.165 -0.2513 -1.0086  0.4677
  168POPC  H14X22504   0.341   0.443   4.133  0.4345  0.6303  3.5193
  168POPC  H14Y22505   0.234   0.326   4.215  0.7611  1.0476  4.7929
  168POPC  C31522506   0.195   0.524   4.274  0.6531  0.1354 -0.2160
  168POPC  H15X22507   0.229   0.621   4.234 -0.6775  0.9074  0.4763
  168POPC  H15Y22508   0.253   0.509   4.367 -1.1704  0.2990  0.9839
  168POPC  C31622509   0.047   0.543   4.307  0.6912 -0.3337  0.2330
  168POPC  H16X22510   0.021   0.436   4.322  0.2347 -0.3634 -0.6647
  168POPC  H16Y22511   7.957   0.588   4.220 -1.5749 -0.2092  1.5787
  168POPC  H16Z22512   0.037   0.602   4.401  1.0575 -0.6176  0.4503
  169POPC     N22513   1.880   1.824   1.751  0.1475 -0.3715  0.0172
  169POPC   C1222514   1.912   1.763   1.886  0.5169 -0.1031  0.0498
  169POPC  H12A22518   2.019   1.749   1.892  0.5916  0.6105  0.5239
  169POPC  H12B22519   1.884   1.659   1.881 -3.1516  0.8906 -1.6777
  169POPC   C1322515   1.741   1.774   1.718 -0.0408 -0.0793  0.3664
  169POPC  H13A22520   1.671   1.801   1.796 -0.3510  3.5593 -1.0783
  169POPC  H13B22521   1.705   1.816   1.625 -3.7698  0.6079  2.0288
  169POPC  H13C22522   1.745   1.667   1.703  0.2995  0.0747 -0.6571
  169POPC   C1422516   1.884   1.975   1.747 -0.0429 -0.3530  0.4761
  169POPC  H14A22523   1.836   2.008   1.657 -0.8152 -0.4249  0.8562
  169POPC  H14B22524   1.833   2.031   1.824  0.8555  1.5962 -0.3175
  169POPC  H14C22525   1.990   1.989   1.762 -0.0968  0.3858  0.1806
  169POPC   C1522517   1.970   1.765   1.646 -0.1420  0.5061 -0.7316
  169POPC  H15A22526   1.963   1.817   1.552 -2.5812 -0.8273 -1.3274
  169POPC  H15B22527   1.938   1.662   1.634 -0.8814  0.7364 -0.7209
  169POPC  H15C22528   2.066   1.764   1.696 -0.4720  1.9828 -0.0590
  169POPC   C1122529   1.854   1.823   2.014 -0.1218  0.1669 -0.3639
  169POPC  H11A22530   1.903   1.922   2.022 -1.3209  0.9433 -2.2213
  169POPC  H11B22531   1.904   1.759   2.090 -0.0675 -0.6511 -1.0722
  169POPC     P22532   1.659   1.949   2.107  0.1051 -0.0501 -0.2129
  169POPC   O1322533   1.522   1.919   2.155  0.2042  0.0218  0.1116
  169POPC   O1422534   1.674   2.067   2.018  0.2679 -0.3328 -0.5612
  169POPC   O1222535   1.711   1.823   2.023 -0.1167 -0.1050 -0.2680
  169POPC   O1122536   1.756   1.965   2.233  0.0927  0.0576 -0.2171
  169POPC    C122537   1.758   1.867   2.337 -0.0177  0.0830 -0.1901
  169POPC    HA22538   1.841   1.885   2.409 -0.5504 -1.7316  0.9134
  169POPC    HB22539   1.782   1.769   2.290 -1.6261 -0.7560  0.6808
  169POPC    C222540   1.638   1.870   2.434  0.2412  0.0294  0.1347
  169POPC    HS22541   1.554   1.823   2.378  0.9363 -1.6869  0.4797
  169POPC   O2122542   1.616   2.004   2.477 -0.1416 -0.1117  0.3753
  169POPC   C2122543   1.491   2.022   2.519 -0.2550 -0.2001  0.0738
  169POPC   O2222544   1.405   1.936   2.531 -0.0482 -0.3428  0.5163
  169POPC   C2222545   1.471   2.165   2.568  0.5886 -0.1099  0.1569
  169POPC   H2R22546   1.365   2.195   2.581  0.9416  0.9466  0.6670
  169POPC   H2S22547   1.503   2.236   2.489 -0.4581  1.3604  1.0432
  169POPC    C322548   1.673   1.784   2.557 -0.1962 -0.3275  0.0111
  169POPC    HX22549   1.721   1.690   2.523  1.8752  0.3623  0.9369
  169POPC    HY22550   1.581   1.749   2.608 -1.2652 -1.5387 -2.6891
  169POPC   O3122551   1.762   1.850   2.647 -0.0866 -0.1634 -0.2143
  169POPC   C3122552   1.839   1.770   2.722  0.1717 -0.0458 -0.3527
  169POPC   O3222553   1.821   1.653   2.749  0.3362  0.0671  0.2642
  169POPC   C3222554   1.959   1.853   2.765 -0.0224 -0.0921  0.2870
  169POPC   H2X22555   1.930   1.942   2.824  1.4011 -0.5486  1.7225
  169POPC   H2Y22556   2.008   1.888   2.672 -1.6478 -0.7423 -0.8433
  169POPC   C2322557   1.545   2.182   2.701  0.7854 -0.1563  0.0539
  169POPC   H3R22558   1.545   2.287   2.738 -1.9509 -0.1584  0.1737
  169POPC   H3S22559   1.650   2.147   2.699  0.8742  0.1749 -1.5267
  169POPC   C2422560   1.485   2.105   2.819 -0.2944 -0.1365 -0.4781
  169POPC   H4R22561   1.465   1.999   2.792 -4.1020  0.7431 -1.5831
  169POPC   H4S22562   1.379   2.140   2.819  0.3798  1.9487  0.2573
  169POPC   C2522563   1.534   2.129   2.961  0.2180 -0.5505 -0.5839
  169POPC   H5R22564   1.453   2.121   3.037  1.2047 -0.8609  0.4513
  169POPC   H5S22565   1.573   2.233   2.969  1.7309 -1.0560 -1.3380
  169POPC   C2622566   1.638   2.020   2.987  0.6486 -0.0869 -0.3423
  169POPC   H6R22567   1.706   2.030   2.900 -0.4518  1.3355 -1.0567
  169POPC   H6S22568   1.590   1.920   2.974  0.4521 -0.3015  1.7290
  169POPC   C2722569   1.697   2.011   3.128  0.3682  0.1653 -0.2086
  169POPC   H7R22570   1.770   1.928   3.119  0.2552  0.2103 -1.6532
  169POPC   H7S22571   1.623   1.982   3.206  0.9165 -2.1226 -0.4969
  169POPC   C2822572   1.764   2.144   3.162  0.2626  0.2470 -0.3203
  169POPC   H8R22573   1.796   2.147   3.268  0.5530 -1.0513 -0.3596
  169POPC   H8S22574   1.692   2.229   3.160  1.6241  1.4224 -0.2051
  169POPC   C2922575   1.882   2.171   3.073  0.4819 -0.0456 -0.1182
  169POPC   H9122576   1.853   2.192   2.969 -0.8138  0.1482  0.2777
  169POPC  C21022577   2.011   2.190   3.106  0.5283  0.5318 -0.6193
  169POPC  H10122578   2.081   2.225   3.029  1.5958  1.7616  0.8882
  169POPC  C21122579   2.069   2.185   3.244 -0.0669  0.9130 -0.3512
  169POPC  H11R22580   2.082   2.081   3.280  1.3851  0.8055 -1.1549
  169POPC  H11S22581   1.997   2.216   3.322 -1.0239 -1.2778 -0.3373
  169POPC  C21222582   2.206   2.250   3.271  0.2295  0.1074  0.0793
  169POPC  H12R22583   2.197   2.355   3.237  0.3032  0.1689  0.2483
  169POPC  H12S22584   2.280   2.207   3.201  2.0341  1.0905  1.3649
  169POPC  C21322585   2.244   2.254   3.419 -0.5371 -0.1122  0.2866
  169POPC  H13R22586   2.268   2.159   3.471 -0.5466 -0.9811 -1.2912
  169POPC  H13S22587   2.162   2.311   3.469  0.3645  2.5210 -1.1165
  169POPC  C21422588   2.369   2.339   3.444 -0.2555 -0.4829  0.1310
  169POPC  H14R22589   2.352   2.435   3.391  2.7334  1.6258  2.7674
  169POPC  H14S22590   2.457   2.287   3.400 -0.2326 -0.8729  0.6287
  169POPC  C21522591   2.393   2.374   3.591 -0.3286  0.9787 -0.1985
  169POPC  H15R22592   2.438   2.290   3.648  0.8376  0.6796 -1.5300
  169POPC  H15S22593   2.293   2.391   3.637 -0.6620  1.6561 -1.1739
  169POPC  C21622594   2.483   2.497   3.600  0.3292  0.4919 -0.1166
  169POPC  H16R22595   2.440   2.588   3.554  0.5026  1.0700  0.8426
  169POPC  H16S22596   2.562   2.465   3.528 -2.2147 -1.0446 -2.3466
  169POPC  C21722597   2.542   2.519   3.740 -0.2539  0.2651  0.1634
  169POPC  H17R22598   2.601   2.429   3.768 -1.3537 -0.6440 -0.3700
  169POPC  H17S22599   2.454   2.518   3.808  0.8882 -4.0133  1.7432
  169POPC  C21822600   2.623   2.648   3.746 -0.1403  0.2222 -0.4029
  169POPC  H18R22601   2.564   2.725   3.692 -0.9324 -0.7798 -0.9903
  169POPC  H18S22602   2.721   2.631   3.698  0.5885  2.2888  0.2916
  169POPC  H18T22603   2.638   2.693   3.846 -0.0497  0.3776 -0.4865
  169POPC   C3322604   2.064   1.778   2.848  0.1213  0.1068  0.2874
  169POPC   H3X22605   2.163   1.824   2.831  1.6803 -3.5547 -1.1921
  169POPC   H3Y22606   2.070   1.671   2.817 -0.2462  0.5849 -1.5092
  169POPC   C3422607   2.036   1.794   2.998 -0.0178  0.7241  0.1954
  169POPC   H4X22608   1.938   1.744   3.016  0.0891  1.0960  1.8706
  169POPC   H4Y22609   2.021   1.901   3.024  1.4828  1.3250 -1.3583
  169POPC   C3522610   2.133   1.724   3.093  0.2563  0.1072 -0.5276
  169POPC   H5X22611   2.077   1.725   3.189  0.1590 -0.6302 -0.5771
  169POPC   H5Y22612   2.230   1.779   3.093  1.3822 -1.8200  0.6709
  169POPC   C3622613   2.164   1.575   3.078  0.1855  0.0128  0.2335
  169POPC   H6X22614   2.226   1.539   3.163 -0.4750  0.4685  0.9147
  169POPC   H6Y22615   2.226   1.567   2.986 -1.5865  0.4623 -1.0248
  169POPC   C3722616   2.046   1.478   3.063 -0.2034  0.7015 -1.2597
  169POPC   H7X22617   1.977   1.528   2.992  0.4764  2.9963 -0.3512
  169POPC   H7Y22618   1.986   1.479   3.156  1.0387  0.0427 -0.4308
  169POPC   C3822619   2.091   1.337   3.025  0.2620  0.5052 -0.0011
  169POPC   H8X22620   2.201   1.328   3.039 -0.0457 -1.9176  1.0185
  169POPC   H8Y22621   2.074   1.317   2.917 -1.9112 -0.5827  0.5269
  169POPC   C3922622   2.018   1.228   3.102  0.3765  0.5017  0.1033
  169POPC   H9X22623   2.054   1.130   3.063  0.3340  1.5221 -2.5838
  169POPC   H9Y22624   1.909   1.222   3.082  0.1454  0.6339  1.2531
  169POPC  C31022625   2.024   1.237   3.255  0.4934 -0.5089  0.1618
  169POPC  H10X22626   2.003   1.131   3.284 -0.5869 -0.5703 -0.8010
  169POPC  H10Y22627   1.952   1.315   3.289 -0.2980 -0.8498 -0.7014
  169POPC  C31122628   2.165   1.263   3.308  0.4493  0.7922 -0.3487
  169POPC  H11X22629   2.191   1.371   3.308  1.8849  0.4541 -0.6982
  169POPC  H11Y22630   2.235   1.205   3.244  1.2945  2.4218 -0.9249
  169POPC  C31222631   2.182   1.214   3.452 -0.3075 -0.5953 -0.7181
  169POPC  H12X22632   2.286   1.244   3.478 -0.3805 -0.8274 -0.1620
  169POPC  H12Y22633   2.170   1.104   3.458 -1.6109 -0.4368 -0.1903
  169POPC  C31322634   2.098   1.283   3.560  0.5943  0.3391 -0.5997
  169POPC  H13X22635   2.123   1.243   3.661 -0.2329  1.7832  0.1899
  169POPC  H13Y22636   1.991   1.257   3.544  0.9135 -2.8128  1.9853
  169POPC  C31422637   2.101   1.436   3.559 -0.3480  0.3685  0.0419
  169POPC  H14X22638   2.018   1.479   3.619 -1.4800 -1.6042 -0.0691
  169POPC  H14Y22639   2.077   1.453   3.451  3.7641  0.1279 -0.9989
  169POPC  C31522640   2.233   1.501   3.600 -0.1028  0.0618 -0.2493
  169POPC  H15X22641   2.320   1.447   3.557  0.9457  0.3833  1.4277
  169POPC  H15Y22642   2.242   1.495   3.711  2.1499  4.2430 -0.0916
  169POPC  C31622643   2.246   1.648   3.558  0.6917 -0.0945 -0.5450
  169POPC  H16X22644   2.352   1.681   3.565  0.4256  0.9227 -1.1872
  169POPC  H16Y22645   2.183   1.716   3.618  1.4754  1.0789 -1.0215
  169POPC  H16Z22646   2.211   1.654   3.453  3.3680  0.5296 -1.4610
  170POPC     N22647   2.051   5.891   1.949 -0.0160  0.0184 -0.0886
  170POPC   C1222648   2.080   5.858   2.093  0.0561  0.7200  0.0620
  170POPC  H12A22652   2.165   5.919   2.117 -0.0476  1.4477 -1.3942
  170POPC  H12B22653   2.114   5.756   2.090  0.7024  0.9170  0.4980
  170POPC   C1322649   2.188   5.905   1.886  0.1108  0.2211  0.2309
  170POPC  H13A22654   2.182   5.937   1.783  0.3389  0.1016  0.1816
  170POPC  H13B22655   2.239   5.990   1.930 -0.3110  0.4933  0.2006
  170POPC  H13C22656   2.247   5.817   1.905  1.0880  0.9799  0.7524
  170POPC   C1422650   1.971   5.782   1.883 -0.0246 -0.1865  0.2617
  170POPC  H14A22657   1.945   5.804   1.780  1.2908  1.4934  0.2701
  170POPC  H14B22658   2.013   5.683   1.891  0.1696 -0.1461 -0.2457
  170POPC  H14C22659   1.870   5.773   1.922 -0.8504  1.7329 -1.3138
  170POPC   C1522651   1.982   6.026   1.947  0.0959  0.0740 -0.1768
  170POPC  H15A22660   2.038   6.089   2.014  0.4150 -0.7878  0.3811
  170POPC  H15B22661   1.885   6.015   1.993  0.7001 -0.7025  0.9362
  170POPC  H15C22662   1.975   6.061   1.845  1.7684 -3.2359 -1.5323
  170POPC   C1122663   1.973   5.866   2.202 -0.0254 -0.0203  0.0410
  170POPC  H11A22664   1.949   5.972   2.225  2.0496  0.3178  0.7529
  170POPC  H11B22665   2.007   5.814   2.294 -1.8478 -0.5154  0.4601
  170POPC     P22666   1.720   5.865   2.205  0.0938  0.0607 -0.0979
  170POPC   O1322667   1.617   5.779   2.145  0.3900 -0.0701 -0.4202
  170POPC   O1422668   1.711   6.007   2.164  0.3104  0.1352  0.1043
  170POPC   O1222669   1.857   5.794   2.161  0.0342  0.1603 -0.4436
  170POPC   O1122670   1.732   5.856   2.365  0.3208 -0.2163 -0.1299
  170POPC    C122671   1.616   5.800   2.426 -0.0601  0.2519 -0.4222
  170POPC    HA22672   1.612   5.691   2.405 -0.7423 -0.2273  2.0744
  170POPC    HB22673   1.520   5.844   2.389 -1.1779 -0.9285  1.0103
  170POPC    C222674   1.631   5.830   2.576  0.0038 -0.3385 -0.3115
  170POPC    HS22675   1.533   5.798   2.618  0.1362 -1.2075 -0.6430
  170POPC   O2122676   1.658   5.968   2.601 -0.2006 -0.3914  0.2088
  170POPC   C2122677   1.613   6.005   2.721  0.1980  0.0813  0.2125
  170POPC   O2222678   1.540   5.942   2.795  0.5009 -0.2252  0.2558
  170POPC   C2222679   1.675   6.141   2.750 -0.2690  0.3160  0.1082
  170POPC   H2R22680   1.601   6.224   2.758 -1.5173 -0.5935 -1.7897
  170POPC   H2S22681   1.748   6.156   2.669 -1.0248 -0.9461 -0.8288
  170POPC    C322682   1.737   5.740   2.642  0.0754  0.2386  0.3630
  170POPC    HX22683   1.831   5.754   2.583 -0.4532  1.3490 -0.2368
  170POPC    HY22684   1.704   5.635   2.629  1.7472 -0.4706  1.6079
  170POPC   O3122685   1.755   5.763   2.782 -0.1516 -0.1210  0.4506
  170POPC   C3122686   1.682   5.693   2.869 -0.0108 -0.2048  0.5020
  170POPC   O3222687   1.594   5.614   2.838  0.0279 -0.2007  0.3859
  170POPC   C3222688   1.741   5.709   3.008 -0.0767  0.1213  0.4928
  170POPC   H2X22689   1.816   5.790   3.021 -0.3499  0.2807  1.0883
  170POPC   H2Y22690   1.794   5.612   3.016 -0.1676 -0.3602 -3.7554
  170POPC   C2322691   1.747   6.136   2.885 -0.1508  0.0228  0.0351
  170POPC   H3R22692   1.811   6.226   2.902  1.0516 -0.7775 -0.2540
  170POPC   H3S22693   1.802   6.040   2.891  2.7681  1.7020  1.6244
  170POPC   C2422694   1.652   6.143   3.004 -0.1032  0.5698  0.0460
  170POPC   H4R22695   1.588   6.054   3.026  2.5678 -1.6320 -0.7394
  170POPC   H4S22696   1.582   6.223   2.973 -0.0018 -0.2618 -2.4637
  170POPC   C2522697   1.711   6.194   3.136 -0.5889  0.4306  0.3228
  170POPC   H5R22698   1.627   6.226   3.201 -1.9950 -1.3358 -0.5815
  170POPC   H5S22699   1.776   6.282   3.118  0.0261 -0.1467 -0.3331
  170POPC   C2622700   1.802   6.091   3.202 -0.2466  0.1956 -0.4992
  170POPC   H6R22701   1.862   6.044   3.121  1.1759  0.2004  0.5242
  170POPC   H6S22702   1.744   6.009   3.248  1.1021  0.8160  2.4436
  170POPC   C2722703   1.890   6.145   3.315 -0.0540  0.1587 -0.6322
  170POPC   H7R22704   1.826   6.209   3.379 -1.6718  0.3294 -2.3903
  170POPC   H7S22705   1.968   6.212   3.273  1.5948 -0.0969  1.9023
  170POPC   C2822706   1.955   6.039   3.404  0.0741  0.3566 -0.4884
  170POPC   H8R22707   1.875   5.973   3.444  2.1040 -2.3244 -0.7177
  170POPC   H8S22708   2.002   6.095   3.488 -2.8395 -0.8399  2.0109
  170POPC   C2922709   2.066   5.962   3.338 -0.2628 -0.6659  0.1166
  170POPC   H9122710   2.032   5.914   3.245 -2.5103 -0.0066  0.5814
  170POPC  C21022711   2.193   5.940   3.375 -0.1753  0.3550  0.4373
  170POPC  H10122712   2.259   5.866   3.328 -0.6854  0.0005  0.2703
  170POPC  C21122713   2.260   5.988   3.501  0.3868 -0.6019  0.5059
  170POPC  H11R22714   2.243   5.917   3.586  0.1222  1.6442  2.3886
  170POPC  H11S22715   2.209   6.080   3.538 -0.5330 -1.3027  1.0034
  170POPC  C21222716   2.411   6.005   3.485  0.3039  0.6232  0.9710
  170POPC  H12R22717   2.445   5.905   3.451 -0.0863  0.1660  1.9113
  170POPC  H12S22718   2.449   6.036   3.584 -1.0827 -0.7305  1.9422
  170POPC  C21322719   2.437   6.110   3.376  0.2636  0.2476  0.5957
  170POPC  H13R22720   2.381   6.203   3.400 -0.4190 -0.1859  0.7068
  170POPC  H13S22721   2.391   6.070   3.284  0.7834 -0.0708  0.4727
  170POPC  C21422722   2.584   6.137   3.343  0.1509 -0.1204 -0.2182
  170POPC  H14R22723   2.623   6.034   3.330 -0.3229 -0.0924 -1.9567
  170POPC  H14S22724   2.629   6.197   3.425 -0.3669 -1.6392  1.2013
  170POPC  C21522725   2.610   6.209   3.211 -0.6837  0.5916 -0.0068
  170POPC  H15R22726   2.720   6.220   3.201 -0.1185 -3.4893  0.5849
  170POPC  H15S22727   2.557   6.306   3.209 -0.0225  0.9463 -1.2204
  170POPC  C21622728   2.580   6.121   3.089  0.1812  0.3693 -0.0680
  170POPC  H16R22729   2.477   6.079   3.092  1.0753 -1.8334  1.8043
  170POPC  H16S22730   2.654   6.039   3.094 -1.5680 -1.4745 -2.8836
  170POPC  C21722731   2.616   6.192   2.959 -0.3527 -0.3219 -0.5995
  170POPC  H17R22732   2.578   6.126   2.878 -0.1094 -0.4518 -0.6049
  170POPC  H17S22733   2.726   6.203   2.967 -0.4808 -0.5644  1.6537
  170POPC  C21822734   2.553   6.329   2.928  1.1488  0.4477 -0.2949
  170POPC  H18R22735   2.577   6.393   3.016 -1.1689  0.8219  0.1048
  170POPC  H18S22736   2.445   6.305   2.926  1.6171 -1.7140 -1.4806
  170POPC  H18T22737   2.594   6.374   2.836  1.9311 -0.5831 -0.4714
  170POPC   C3322738   1.621   5.716   3.103 -0.3398 -0.5219  0.2060
  170POPC   H3X22739   1.560   5.625   3.083 -4.7255  1.8811  2.1311
  170POPC   H3Y22740   1.564   5.808   3.080 -0.3523 -0.2228  1.4218
  170POPC   C3422741   1.664   5.713   3.250  0.6797  0.3436 -0.0677
  170POPC   H4X22742   1.753   5.769   3.284  1.7976 -0.7090 -1.2049
  170POPC   H4Y22743   1.672   5.606   3.279  0.4907  0.3982  0.1896
  170POPC   C3522744   1.554   5.774   3.337  0.0326 -0.2079 -0.4884
  170POPC   H5X22745   1.458   5.719   3.333 -0.2083  0.1042  0.8636
  170POPC   H5Y22746   1.526   5.879   3.313  0.0445 -0.7745 -3.1570
  170POPC   C3622747   1.598   5.774   3.484 -0.5439  0.2022 -0.3132
  170POPC   H6X22748   1.667   5.860   3.497 -1.3296  0.9824 -1.2462
  170POPC   H6Y22749   1.658   5.682   3.500  0.4483  0.8599 -0.2169
  170POPC   C3722750   1.481   5.782   3.582 -0.3588  0.5920 -0.1208
  170POPC   H7X22751   1.398   5.715   3.550 -1.3682  1.5960  0.3657
  170POPC   H7Y22752   1.455   5.889   3.582 -1.3638  0.3651 -1.4613
  170POPC   C3822753   1.517   5.750   3.727 -0.1408  0.3104 -0.2363
  170POPC   H8X22754   1.624   5.776   3.741  0.0850 -1.4257  1.5192
  170POPC   H8Y22755   1.509   5.639   3.724 -0.8344  0.3362  0.4452
  170POPC   C3922756   1.420   5.798   3.835  0.7997  0.2101  0.6652
  170POPC   H9X22757   1.437   5.745   3.931  2.2519 -1.6919 -0.6007
  170POPC   H9Y22758   1.322   5.764   3.795  1.1555 -1.3533  1.0694
  170POPC  C31022759   1.416   5.949   3.855 -0.5032  0.2502  0.1786
  170POPC  H10X22760   1.334   5.963   3.929 -1.4280 -0.3903 -0.7232
  170POPC  H10Y22761   1.397   6.009   3.764  0.5925 -1.4097 -1.1656
  170POPC  C31122762   1.549   5.985   3.923 -0.1999  0.7279 -0.6604
  170POPC  H11X22763   1.639   5.952   3.867 -0.5509 -0.7661 -0.3530
  170POPC  H11Y22764   1.541   5.952   4.029  0.4847  0.1856 -0.7793
  170POPC  C31222765   1.575   6.134   3.946 -0.3796  0.5950  0.4069
  170POPC  H12X22766   1.643   6.156   4.031 -0.0436 -0.3326  0.3749
  170POPC  H12Y22767   1.476   6.177   3.972 -1.2303 -1.2793  0.3097
  170POPC  C31322768   1.623   6.206   3.820 -0.3574  0.3738  0.2899
  170POPC  H13X22769   1.542   6.205   3.745  0.3820  0.9298 -0.5188
  170POPC  H13Y22770   1.720   6.168   3.782  0.4750 -0.0870  2.7607
  170POPC  C31422771   1.650   6.354   3.845 -0.4977  0.4323  0.0875
  170POPC  H14X22772   1.743   6.364   3.905 -0.0987 -0.0954 -0.4420
  170POPC  H14Y22773   1.567   6.384   3.913  0.8872  1.9534  1.1483
  170POPC  C31522774   1.644   6.434   3.714 -0.2228  0.5010  0.1170
  170POPC  H15X22775   1.548   6.416   3.661  0.4867 -0.8431 -0.7301
  170POPC  H15Y22776   1.735   6.401   3.659 -0.2943  1.5411 -0.6444
  170POPC  C31622777   1.656   6.584   3.739 -0.1118  0.5298 -0.1065
  170POPC  H16X22778   1.673   6.643   3.647  3.4487 -0.8186 -0.4133
  170POPC  H16Y22779   1.745   6.604   3.803  0.3354 -1.6771  0.0081
  170POPC  H16Z22780   1.559   6.610   3.787 -0.2026  0.0802 -0.0487
  171POPC     N22781   1.336   4.363   2.650 -0.0040  0.0906  0.0394
  171POPC   C1222782   1.387   4.287   2.770 -0.5948  0.3389  0.4509
  171POPC  H12A22786   1.327   4.325   2.852 -0.4444 -0.4155  0.9095
  171POPC  H12B22787   1.492   4.311   2.769 -0.2948 -0.9659 -1.6981
  171POPC   C1322783   1.413   4.326   2.526  0.4259 -0.0674  0.3535
  171POPC  H13A22788   1.510   4.375   2.524 -0.5537  1.9405  0.2864
  171POPC  H13B22789   1.432   4.220   2.535 -2.3731 -0.6069  0.2680
  171POPC  H13C22790   1.358   4.365   2.441 -0.3491 -0.7669  0.5387
  171POPC   C1422784   1.192   4.327   2.622  0.1124 -0.3829  0.0545
  171POPC  H14A22791   1.189   4.232   2.569 -1.7163 -0.6922  0.6547
  171POPC  H14B22792   1.133   4.308   2.711  0.5663  0.4869  0.5391
  171POPC  H14C22793   1.149   4.408   2.565 -0.9422  1.0751  2.8690
  171POPC   C1522785   1.348   4.510   2.682  0.1487  0.2300 -0.6406
  171POPC  H15A22794   1.332   4.520   2.789  1.3607  0.5106 -0.4774
  171POPC  H15B22795   1.283   4.559   2.611  1.7732  0.8427 -1.7326
  171POPC  H15C22796   1.448   4.551   2.674  0.1715 -0.2903 -3.3619
  171POPC   C1122797   1.366   4.136   2.773  0.1763  0.2342  0.6647
  171POPC  H11A22798   1.258   4.116   2.787 -0.3161  2.3734  0.0573
  171POPC  H11B22799   1.426   4.103   2.860  1.1069 -1.8183 -0.7135
  171POPC     P22800   1.402   3.916   2.642 -0.1447  0.2717  0.3004
  171POPC   O1322801   1.489   3.856   2.539 -0.5385  0.0314  0.1071
  171POPC   O1422802   1.257   3.904   2.612 -0.0215 -0.0448 -0.1602
  171POPC   O1222803   1.435   4.071   2.666  0.2342  0.1200  0.7715
  171POPC   O1122804   1.444   3.856   2.784  0.5913  0.1470  0.0342
  171POPC    C122805   1.406   3.719   2.793  0.9588  0.0470  0.0673
  171POPC    HA22806   1.462   3.653   2.723  0.9351 -1.0626  1.0712
  171POPC    HB22807   1.299   3.699   2.769  1.1410 -1.5383  0.5130
  171POPC    C222808   1.431   3.672   2.937  0.1762  0.5198  0.3580
  171POPC    HS22809   1.373   3.582   2.965 -0.5453  0.7654 -0.3348
  171POPC   O2122810   1.393   3.770   3.035 -0.2659  0.0794  0.6290
  171POPC   C2122811   1.260   3.780   3.047 -0.3622  0.5353 -0.7200
  171POPC   O2222812   1.179   3.699   3.006  0.1004 -0.0631 -0.4655
  171POPC   C2222813   1.232   3.916   3.108  0.3671  0.1989  0.3763
  171POPC   H2R22814   1.155   3.969   3.048  0.3525 -1.0872 -0.7750
  171POPC   H2S22815   1.319   3.980   3.087 -0.2464  0.7027 -0.6951
  171POPC    C322816   1.577   3.629   2.958  0.2237  0.7036  0.4127
  171POPC    HX22817   1.650   3.709   2.940  1.5311 -0.7948 -1.0810
  171POPC    HY22818   1.599   3.546   2.887 -1.0986  1.5335 -0.9975
  171POPC   O3122819   1.598   3.580   3.091 -0.2726  0.2461  0.3252
  171POPC   C3122820   1.553   3.459   3.125  0.0390  0.0648  0.0915
  171POPC   O3222821   1.493   3.384   3.050 -0.3511  0.6324 -0.1633
  171POPC   C3222822   1.607   3.418   3.262  0.6358 -0.2642 -0.2361
  171POPC   H2X22823   1.703   3.465   3.291  0.2763  0.4288 -0.1429
  171POPC   H2Y22824   1.625   3.309   3.255  1.0492 -0.4153  2.5557
  171POPC   C2322825   1.196   3.923   3.257 -0.3402  0.1257  0.2122
  171POPC   H3R22826   1.285   3.882   3.309  0.3164  1.4292  0.1286
  171POPC   H3S22827   1.107   3.864   3.286  0.1079 -0.9510 -0.5516
  171POPC   C2422828   1.171   4.067   3.303  0.5952  0.3364  0.0745
  171POPC   H4R22829   1.081   4.109   3.254  0.9114  1.8073  0.7263
  171POPC   H4S22830   1.255   4.122   3.256  1.5895 -0.3294  1.0449
  171POPC   C2522831   1.178   4.074   3.456 -0.0098 -0.4622  0.1411
  171POPC   H5R22832   1.280   4.044   3.488  0.4461 -1.3929 -2.0696
  171POPC   H5S22833   1.116   3.991   3.496 -0.1552 -1.6383 -2.3714
  171POPC   C2622834   1.141   4.214   3.504 -0.4745 -0.5331 -0.0093
  171POPC   H6R22835   1.042   4.248   3.468 -0.5552  1.6732  2.1213
  171POPC   H6S22836   1.218   4.288   3.474 -0.7597 -0.5330 -0.7477
  171POPC   C2722837   1.129   4.219   3.657  0.5932  0.2005  0.0583
  171POPC   H7R22838   1.223   4.180   3.701 -0.7157  0.9188  3.5782
  171POPC   H7S22839   1.042   4.161   3.695 -1.1338  1.4660 -1.8191
  171POPC   C2822840   1.110   4.361   3.711 -0.4963  0.1729 -0.2319
  171POPC   H8R22841   1.023   4.409   3.662  0.0907  0.4077 -1.0522
  171POPC   H8S22842   1.192   4.435   3.695 -0.0665  0.0804  1.4545
  171POPC   C2922843   1.090   4.341   3.858 -0.0292  0.4465 -0.1299
  171POPC   H9122844   1.184   4.357   3.912  1.1790 -1.4956 -1.6085
  171POPC  C21022845   0.979   4.353   3.932  0.2733  0.1818  0.3727
  171POPC  H10122846   0.973   4.350   4.042  2.1070  0.9324  0.5068
  171POPC  C21122847   0.840   4.366   3.876  0.4718  0.1023 -0.1388
  171POPC  H11R22848   0.781   4.291   3.933  2.1011 -1.5728 -0.5883
  171POPC  H11S22849   0.839   4.343   3.767  0.8473  0.6372 -0.2579
  171POPC  C21222850   0.779   4.501   3.912  0.5932  0.0337  0.3332
  171POPC  H12R22851   0.792   4.526   4.019 -1.3610  0.6465  0.4633
  171POPC  H12S22852   0.672   4.500   3.879  1.1599  1.1177 -1.6419
  171POPC  C21322853   0.846   4.612   3.830 -0.0879  0.0888 -0.1615
  171POPC  H13R22854   0.840   4.584   3.723 -1.5288  0.1310 -0.1017
  171POPC  H13S22855   0.951   4.624   3.863 -0.6694  1.5637  1.2160
  171POPC  C21422856   0.799   4.754   3.859 -0.5036 -0.0508 -0.1527
  171POPC  H14R22857   0.759   4.752   3.963 -0.5464 -0.0602 -0.1693
  171POPC  H14S22858   0.714   4.777   3.791  0.1584 -0.7845 -1.2367
  171POPC  C21522859   0.917   4.851   3.851 -0.1955 -0.4726 -0.7339
  171POPC  H15R22860   0.958   4.854   3.748 -1.4559  2.4411 -1.2057
  171POPC  H15S22861   0.992   4.818   3.926 -2.0472  0.2775  1.5277
  171POPC  C21622862   0.873   4.994   3.883  0.2513 -0.3974 -0.4360
  171POPC  H16R22863   0.823   5.000   3.982 -1.2294  1.0002 -1.2318
  171POPC  H16S22864   0.797   5.020   3.805 -2.5857 -1.2532  1.9516
  171POPC  C21722865   0.984   5.099   3.884  0.5712 -0.7408 -0.0829
  171POPC  H17R22866   0.932   5.196   3.901 -1.4615 -1.7643 -0.2837
  171POPC  H17S22867   1.030   5.100   3.783 -0.6754 -1.9810 -0.6809
  171POPC  C21822868   1.088   5.086   3.996  0.3263 -0.3321  0.1934
  171POPC  H18R22869   1.052   5.149   4.080 -0.6139  0.0289 -0.4729
  171POPC  H18S22870   1.190   5.122   3.970  0.2517  0.0863  0.4730
  171POPC  H18T22871   1.094   4.986   4.043 -2.3900 -0.0028  1.3264
  171POPC   C3322872   1.489   3.440   3.358  0.9539 -0.0725  0.1124
  171POPC   H3X22873   1.500   3.387   3.455 -0.3415 -1.8020 -0.6419
  171POPC   H3Y22874   1.393   3.403   3.316 -0.2173  2.2625  0.6591
  171POPC   C3422875   1.464   3.587   3.388 -0.1966 -0.3274  0.4214
  171POPC   H4X22876   1.421   3.643   3.302 -0.2859 -1.1118 -0.0409
  171POPC   H4Y22877   1.564   3.629   3.413  1.2718 -1.8374 -2.6742
  171POPC   C3522878   1.390   3.611   3.520 -0.0594  0.1893  0.4084
  171POPC   H5X22879   1.443   3.549   3.595 -0.6534 -1.5715 -0.5919
  171POPC   H5Y22880   1.283   3.581   3.519  0.4026 -1.5719  0.7123
  171POPC   C3622881   1.384   3.754   3.573 -0.0665  0.1717  0.4543
  171POPC   H6X22882   1.369   3.830   3.493  1.4217  0.5565  0.5258
  171POPC   H6Y22883   1.482   3.781   3.617  1.1421  1.6264 -2.8929
  171POPC   C3722884   1.271   3.760   3.675 -0.2692  0.7396  0.2027
  171POPC   H7X22885   1.274   3.671   3.742  2.4066  0.0686 -0.7641
  171POPC   H7Y22886   1.177   3.760   3.615  0.0342 -0.1326 -0.2844
  171POPC   C3822887   1.287   3.878   3.771 -0.2988  1.0375 -0.1630
  171POPC   H8X22888   1.281   3.978   3.723  1.7803  1.3282  0.1409
  171POPC   H8Y22889   1.389   3.865   3.813 -0.0287  0.6704 -0.9237
  171POPC   C3922890   1.171   3.888   3.870 -0.3209  0.2827 -0.1095
  171POPC   H9X22891   1.169   3.787   3.916 -1.8315 -0.4162 -1.6533
  171POPC   H9Y22892   1.079   3.923   3.819  1.7938  2.6088 -2.4598
  171POPC  C31022893   1.182   3.982   3.991  0.3565  0.0276  0.0301
  171POPC  H10X22894   1.192   4.079   3.938  1.0680 -0.8228 -1.4183
  171POPC  H10Y22895   1.284   3.971   4.032  0.0397  1.1477  1.1324
  171POPC  C31122896   1.087   3.976   4.111 -0.1017 -0.0269 -0.3352
  171POPC  H11X22897   0.990   4.029   4.094  0.6289  1.4642  0.1288
  171POPC  H11Y22898   1.133   4.032   4.194 -1.5583 -0.0460  0.5164
  171POPC  C31222899   1.052   3.835   4.161 -0.5752  0.1227 -0.2435
  171POPC  H12X22900   1.049   3.840   4.272  0.6872 -0.3355 -0.1739
  171POPC  H12Y22901   1.129   3.762   4.128 -2.2595 -2.4824  1.4257
  171POPC  C31322902   0.917   3.783   4.114 -0.2301 -0.8330 -0.1809
  171POPC  H13X22903   0.909   3.787   4.003  0.1946 -1.2980 -0.2324
  171POPC  H13Y22904   0.829   3.840   4.151 -1.5039 -2.0934 -1.1762
  171POPC  C31422905   0.878   3.643   4.163  0.3737 -0.6731  0.7403
  171POPC  H14X22906   0.782   3.614   4.116  0.3578  2.2880 -1.1489
  171POPC  H14Y22907   0.861   3.653   4.273  2.3271  1.3011  0.9105
  171POPC  C31522908   0.974   3.527   4.136  0.7767 -0.1846  0.0630
  171POPC  H15X22909   0.934   3.450   4.205 -0.7911 -0.7054 -1.3981
  171POPC  H15Y22910   1.078   3.548   4.167 -0.0674  0.2298  2.7811
  171POPC  C31622911   0.978   3.474   3.993 -0.1088  0.8611 -0.3606
  171POPC  H16X22912   1.046   3.386   3.994 -0.6144  0.4658 -0.5465
  171POPC  H16Y22913   1.025   3.549   3.925  0.6627  0.9437  0.2587
  171POPC  H16Z22914   0.886   3.430   3.949  0.2003  0.7705 -0.9337
  172POPC     N22915   7.860   6.174   2.196 -0.0142 -0.4695 -0.1236
  172POPC   C1222916   7.948   6.160   2.318 -0.4967  0.3416  0.3201
  172POPC  H12A22920   0.074   6.110   2.281 -3.7242 -2.4548 -4.0496
  172POPC  H12B22921   7.895   6.089   2.380  0.2151 -1.1967 -0.7876
  172POPC   C1322917   7.926   6.251   2.085 -0.2421 -0.1610 -0.0434
  172POPC  H13A22922   7.932   6.353   2.120 -0.7196  0.9397 -2.9490
  172POPC  H13B22923   0.060   6.207   2.064  0.0884  0.5872 -0.2971
  172POPC  H13C22924   7.859   6.245   2.000  1.3377 -2.7337 -1.1627
  172POPC   C1422918   7.826   6.036   2.146 -0.1198 -0.5367  0.1294
  172POPC  H14A22925   7.896   6.000   2.072 -0.5776  1.5542 -1.3520
  172POPC  H14B22926   7.830   5.971   2.232 -0.7885  1.9702  2.1102
  172POPC  H14C22927   7.728   6.029   2.101  0.6448 -2.6447 -1.3191
  172POPC   C1522919   7.730   6.245   2.222  0.6737  0.7683 -0.0046
  172POPC  H15A22928   7.669   6.194   2.296  1.5098  0.3661  0.4102
  172POPC  H15B22929   7.667   6.258   2.135  0.0262  1.8858  0.6290
  172POPC  H15C22930   7.755   6.340   2.265 -0.6259  0.2986  1.8691
  172POPC   C1122931   0.026   6.279   2.406  0.4670  0.3419 -0.0875
  172POPC  H11A22932   0.121   6.328   2.378  0.2580  0.7678 -0.0535
  172POPC  H11B22933   0.041   6.243   2.510  0.6488 -0.4157 -0.3713
  172POPC     P22934   7.898   6.478   2.524  0.3076  0.1065  0.3390
  172POPC   O1322935   7.812   6.596   2.502 -0.6130 -0.6013  0.0887
  172POPC   O1422936   0.075   6.512   2.563  0.2971  0.8045 -0.0775
  172POPC   O1222937   7.888   6.380   2.397  0.3173  0.2629  0.2173
  172POPC   O1122938   7.828   6.396   2.642 -0.2575 -0.0275 -0.0902
  172POPC    C122939   7.721   6.303   2.621 -0.2210  0.0170 -0.4849
  172POPC    HA22940   7.742   6.221   2.693 -2.9122  0.8609  1.3184
  172POPC    HB22941   7.720   6.272   2.514  1.6838 -1.5499 -0.0854
  172POPC    C222942   7.584   6.360   2.660  0.0400 -0.0558  0.5454
  172POPC    HS22943   7.561   6.428   2.575  2.1778 -0.6035 -0.5018
  172POPC   O2122944   7.598   6.433   2.782  0.0452  0.0719  0.4683
  172POPC   C2122945   7.487   6.499   2.816  0.1193  0.2207  0.4205
  172POPC   O2222946   7.387   6.511   2.748  0.4303 -0.6696 -0.2059
  172POPC   C2222947   7.516   6.567   2.949  0.3229  0.1199  0.4289
  172POPC   H2R22948   7.539   6.674   2.932 -0.1563 -0.0025 -1.0818
  172POPC   H2S22949   7.603   6.529   3.007  0.4725 -0.2846 -0.0570
  172POPC    C322950   7.490   6.238   2.661 -0.2035  0.1295  0.1161
  172POPC    HX22951   7.495   6.188   2.562  0.8826 -1.3439  0.9116
  172POPC    HY22952   7.382   6.260   2.673  0.1520  1.2842  1.3449
  172POPC   O3122953   7.521   6.150   2.769 -0.0452  0.2995  0.2106
  172POPC   C3122954   7.495   6.021   2.748  0.2733  0.2639  0.0354
  172POPC   O3222955   7.434   5.979   2.651  0.3726 -0.5141  0.3067
  172POPC   C3222956   7.534   5.953   2.878  0.4249  0.4098  0.0664
  172POPC   H2X22957   7.461   5.869   2.880 -2.8037  3.0789  0.2440
  172POPC   H2Y22958   7.516   6.022   2.964  3.3937  0.5464  0.6269
  172POPC   C2322959   7.391   6.555   3.037  0.4720  0.0731  0.6339
  172POPC   H3R22960   7.367   6.453   3.073  0.1630  0.3327  1.1675
  172POPC   H3S22961   7.301   6.590   2.982 -1.2532 -2.6529  1.6189
  172POPC   C2422962   7.430   6.627   3.166  0.1065 -0.1528  0.8722
  172POPC   H4R22963   7.417   6.736   3.147 -1.7270 -0.7957 -1.7422
  172POPC   H4S22964   7.536   6.599   3.189  1.3607  2.3293 -1.6129
  172POPC   C2522965   7.356   6.592   3.295 -0.9356 -0.5687  0.1617
  172POPC   H5R22966   7.363   6.484   3.320  1.9333 -0.4771 -0.1584
  172POPC   H5S22967   7.246   6.609   3.287 -0.6456  1.0134 -0.5435
  172POPC   C2622968   7.407   6.668   3.418  0.2777 -0.5722 -0.3371
  172POPC   H6R22969   7.363   6.618   3.506  0.6424 -0.7545 -0.2587
  172POPC   H6S22970   7.371   6.773   3.423 -0.5118 -0.9765  3.4794
  172POPC   C2722971   7.557   6.670   3.447  0.2137  0.2235 -0.0554
  172POPC   H7R22972   7.617   6.727   3.372  1.3316 -0.6463  0.1611
  172POPC   H7S22973   7.594   6.566   3.441 -1.2216 -0.1579 -3.1293
  172POPC   C2822974   7.598   6.722   3.585  0.2792 -0.6672  0.2600
  172POPC   H8R22975   7.707   6.705   3.588  0.7574  2.2212 -0.1207
  172POPC   H8S22976   7.549   6.659   3.663  0.6688  0.6422  1.5851
  172POPC   C2922977   7.572   6.869   3.603  0.0099 -0.6816 -0.0094
  172POPC   H9122978   7.560   6.928   3.511 -0.9620 -1.1878 -0.2093
  172POPC  C21022979   7.560   6.937   3.717 -0.0757 -0.5554 -0.0932
  172POPC  H10122980   7.512   7.036   3.707  2.3558  0.6370 -0.2925
  172POPC  C21122981   7.570   6.887   3.859 -0.2486 -0.1818  0.0509
  172POPC  H11R22982   7.584   6.777   3.859 -0.5317 -0.2188 -0.0016
  172POPC  H11S22983   7.470   6.920   3.894  0.8276  1.1635  1.9820
  172POPC  C21222984   7.674   6.956   3.947 -0.1467 -0.4291  0.1242
  172POPC  H12R22985   7.777   6.924   3.919  0.0751  1.4218 -1.2315
  172POPC  H12S22986   7.660   6.915   4.049  2.2142  3.6516  2.2009
  172POPC  C21322987   7.661   7.108   3.950 -0.0808 -0.4158 -0.2830
  172POPC  H13R22988   7.557   7.145   3.962  0.1083 -0.7812  2.6777
  172POPC  H13S22989   7.701   7.148   3.854  0.6235 -0.9012 -0.1922
  172POPC  C21422990   7.758   7.164   4.055 -0.9136  0.4847  0.0154
  172POPC  H14R22991   7.802   7.258   4.017 -0.6950  0.1872 -0.4839
  172POPC  H14S22992   7.839   7.089   4.066 -0.1667  1.0496 -1.5124
  172POPC  C21522993   7.700   7.204   4.191 -0.3023  0.0241  0.4125
  172POPC  H15R22994   7.783   7.254   4.245 -2.5183  0.8030  3.2053
  172POPC  H15S22995   7.677   7.107   4.241 -0.4341  0.2523  0.7961
  172POPC  C21622996   7.578   7.296   4.184 -0.2370  0.0909  0.1351
  172POPC  H16R22997   7.502   7.227   4.141 -0.8170  0.9319 -0.2013
  172POPC  H16S22998   7.602   7.373   4.107 -2.1128  0.3588 -0.2160
  172POPC  C21722999   7.548   7.347   4.324 -0.0481  0.2853  0.1045
  172POPC  H17R23000   7.641   7.401   4.352  0.0896 -0.5054  1.2368
  172POPC  H17S23001   7.541   7.258   4.390  1.3305 -1.0360 -1.5088
  172POPC  C21823002   7.425   7.437   4.339 -0.1732  0.1467 -0.0958
  172POPC  H18R23003   7.432   7.515   4.261  1.1776 -1.6390 -1.8051
  172POPC  H18S23004   7.430   7.488   4.438  0.1583 -0.3518  0.1484
  172POPC  H18T23005   7.332   7.377   4.334  0.4983 -0.7929 -1.7995
  172POPC   C3323006   7.678   5.903   2.880  0.4692  0.5465  0.3379
  172POPC   H3X23007   7.748   5.985   2.854  0.7493  0.2043  0.0037
  172POPC   H3Y23008   7.681   5.837   2.791  0.1582 -0.2661  0.9107
  172POPC   C3423009   7.723   5.836   3.010  0.8085 -0.3187 -0.2226
  172POPC   H4X23010   7.663   5.742   3.019 -1.7580  1.5292  2.8392
  172POPC   H4Y23011   7.698   5.899   3.098  1.3359 -0.5889  0.1247
  172POPC   C3523012   7.872   5.802   3.023  0.8984 -0.1281 -0.7669
  172POPC   H5X23013   7.927   5.898   3.008 -0.5495  0.7009 -0.9205
  172POPC   H5Y23014   7.905   5.718   2.958 -0.3874 -1.1771 -0.0916
  172POPC   C3623015   7.905   5.765   3.168  0.7135  0.3724 -0.5945
  172POPC   H6X23016   7.824   5.700   3.208  0.7126 -0.2175 -1.5222
  172POPC   H6Y23017   7.892   5.862   3.220 -1.1290 -1.8042  3.1978
  172POPC   C3723018   0.078   5.700   3.198  0.4031 -0.0655  0.0420
  172POPC   H7X23019   0.160   5.759   3.153 -0.3248  1.1229  0.2449
  172POPC   H7Y23020   0.078   5.602   3.146  0.0226 -0.3006  0.4831
  172POPC   C3823021   0.112   5.670   3.344  0.1163  0.1573  0.1548
  172POPC   H8X23022   0.104   5.765   3.401 -2.7030 -0.8379  1.5282
  172POPC   H8Y23023   0.219   5.643   3.351  0.1861 -0.2729 -2.3389
  172POPC   C3923024   0.035   5.551   3.403  0.1660 -0.0023 -0.1020
  172POPC   H9X23025   0.065   5.463   3.343 -2.2729 -0.3058 -0.9148
  172POPC   H9Y23026   7.887   5.566   3.402  0.3359  1.9675  1.8497
  172POPC  C31023027   0.082   5.522   3.546  0.4602 -1.0179 -0.4032
  172POPC  H10X23028   0.072   5.618   3.601  1.0665 -0.7725 -0.7206
  172POPC  H10Y23029   0.187   5.489   3.537 -0.1737 -2.9797 -0.9207
  172POPC  C31123030   0.002   5.410   3.615  0.0104 -0.4256  0.0406
  172POPC  H11X23031   0.001   5.324   3.545  0.7519 -1.3911  1.1877
  172POPC  H11Y23032   7.862   5.452   3.628 -0.2989 -0.3334 -2.1522
  172POPC  C31223033   0.048   5.363   3.753 -0.1286 -0.6722  0.0022
  172POPC  H12X23034   0.000   5.265   3.772 -1.4128  0.2772  1.8765
  172POPC  H12Y23035   0.014   5.445   3.820  0.4792  2.1726 -3.0529
  172POPC  C31323036   0.199   5.352   3.771 -0.1610  0.0786  0.7592
  172POPC  H13X23037   0.254   5.314   3.682 -1.4447  0.8580 -0.3831
  172POPC  H13Y23038   0.209   5.273   3.849  0.8372 -0.1824  0.3765
  172POPC  C31423039   0.266   5.480   3.822 -0.6140  0.3902  0.5707
  172POPC  H14X23040   0.200   5.536   3.893 -0.0482  1.5208  0.2248
  172POPC  H14Y23041   0.291   5.543   3.733 -0.0640 -1.3636 -0.5317
  172POPC  C31523042   0.384   5.473   3.919 -0.1785 -0.0594  0.0068
  172POPC  H15X23043   0.467   5.423   3.864 -0.4809 -2.0205  1.3013
  172POPC  H15Y23044   0.361   5.411   4.008  2.8839  1.1584  1.7061
  172POPC  C31623045   0.428   5.607   3.976  0.0294 -0.0546 -0.1663
  172POPC  H16X23046   0.435   5.669   3.884 -0.4041 -3.1775 -2.3911
  172POPC  H16Y23047   0.522   5.586   4.032  0.9743  0.4895 -1.5279
  172POPC  H16Z23048   0.350   5.649   4.044 -0.6315  0.6719 -1.3549
  173POPC     N23049   1.275   6.836   1.928  0.3131 -0.3801 -0.2641
  173POPC   C1223050   1.162   6.736   1.938 -0.3476  0.3924  0.1081
  173POPC  H12A23054   1.208   6.647   1.898 -1.1600 -0.4805  1.0829
  173POPC  H12B23055   1.080   6.774   1.880 -1.0903 -1.8658 -0.3871
  173POPC   C1323051   1.382   6.801   2.029  0.0936 -0.3526 -0.0187
  173POPC  H13A23056   1.339   6.773   2.124  0.5059  1.3255  0.6771
  173POPC  H13B23057   1.424   6.713   1.982 -1.1676 -0.4463 -1.0017
  173POPC  H13C23058   1.455   6.880   2.039 -2.1810  1.4821  2.5664
  173POPC   C1423052   1.330   6.829   1.788  0.2150  1.1560 -0.3873
  173POPC  H14A23059   1.365   6.729   1.768  0.4522  0.7680  1.7856
  173POPC  H14B23060   1.254   6.850   1.714 -0.5179  0.7172  0.2336
  173POPC  H14C23061   1.411   6.900   1.790  1.0931  0.1680 -0.3374
  173POPC   C1523053   1.218   6.974   1.949 -0.1890 -0.6100 -0.0947
  173POPC  H15A23062   1.147   6.998   1.871 -0.5863  1.2321  0.8000
  173POPC  H15B23063   1.302   7.042   1.941  0.6853 -1.4002  2.1775
  173POPC  H15C23064   1.177   6.976   2.048 -0.7522 -0.0686 -0.3344
  173POPC   C1123065   1.108   6.712   2.079 -0.4491 -0.0586 -0.0041
  173POPC  H11A23066   1.168   6.638   2.135  0.5413  0.1996 -0.7086
  173POPC  H11B23067   1.007   6.669   2.063  1.3060 -3.4440 -2.4951
  173POPC     P23068   0.994   6.837   2.279 -0.1206 -0.0068  0.3924
  173POPC   O1323069   0.873   6.905   2.228  0.1959  0.0097 -0.3609
  173POPC   O1423070   1.049   6.894   2.404 -0.3437  0.1202  0.4327
  173POPC   O1223071   1.103   6.830   2.161 -0.4590 -0.1241  0.0879
  173POPC   O1123072   0.967   6.683   2.312  0.3484 -0.2500 -0.3237
  173POPC    C123073   0.834   6.634   2.291  0.1711  0.0823  0.0030
  173POPC    HA23074   0.848   6.525   2.309 -0.0069  0.3499  1.8390
  173POPC    HB23075   0.794   6.660   2.191  1.8987  1.8072 -0.2742
  173POPC    C223076   0.732   6.682   2.395 -0.2322 -0.0748 -0.3202
  173POPC    HS23077   0.675   6.768   2.354 -0.9232 -1.0708 -1.4870
  173POPC   O2123078   0.802   6.717   2.515 -0.3230 -0.0820 -0.2654
  173POPC   C2123079   0.730   6.780   2.608  0.1893 -0.0059  0.0789
  173POPC   O2223080   0.610   6.801   2.604  0.0180 -0.9667  0.0490
  173POPC   C2223081   0.826   6.811   2.722  0.4479 -0.2248 -0.0774
  173POPC   H2R23082   0.911   6.877   2.695  0.9384 -0.5014  0.7433
  173POPC   H2S23083   0.876   6.719   2.760 -0.6518  0.1575  2.3929
  173POPC    C323084   0.625   6.573   2.415 -0.0831 -0.2366 -0.3969
  173POPC    HX23085   0.609   6.518   2.320 -1.7837 -2.4334  1.0847
  173POPC    HY23086   0.533   6.627   2.446 -1.2115 -1.6915 -1.1328
  173POPC   O3123087   0.664   6.476   2.513 -0.1001  0.3294  0.1714
  173POPC   C3123088   0.582   6.455   2.616 -0.0556 -0.4556  0.0465
  173POPC   O3223089   0.478   6.517   2.634  0.3944  0.2540  0.2313
  173POPC   C3223090   0.647   6.360   2.716 -0.1179 -0.3029  0.2317
  173POPC   H2X23091   0.689   6.272   2.663  1.4248  0.3851  0.3052
  173POPC   H2Y23092   0.563   6.330   2.782 -1.1362  1.9188  0.0100
  173POPC   C2323093   0.745   6.873   2.836  0.3930  0.0375 -0.2613
  173POPC   H3R23094   0.653   6.814   2.858 -0.5212  1.7804  0.7635
  173POPC   H3S23095   0.708   6.974   2.805  0.0070 -0.4586 -1.4262
  173POPC   C2423096   0.828   6.891   2.963  0.0628  0.4302 -0.0966
  173POPC   H4R23097   0.912   6.961   2.944  0.5565 -0.7884 -2.7257
  173POPC   H4S23098   0.882   6.798   2.992  1.2130  1.6697  1.8327
  173POPC   C2523099   0.752   6.959   3.077  0.3513  0.5092  0.0494
  173POPC   H5R23100   0.692   6.895   3.145  0.8860  1.4546  1.4278
  173POPC   H5S23101   0.684   7.028   3.022  1.3502  1.1016 -0.4516
  173POPC   C2623102   0.842   7.032   3.177  0.1194 -0.4390  0.9652
  173POPC   H6R23103   0.890   7.113   3.118 -0.8977 -0.4506  0.0846
  173POPC   H6S23104   0.918   6.961   3.214 -0.1498 -0.2524  1.8801
  173POPC   C2723105   0.760   7.112   3.279  0.0097  0.5364  0.1308
  173POPC   H7R23106   0.717   7.032   3.343 -0.4698  0.9253  0.2982
  173POPC   H7S23107   0.677   7.166   3.229  0.8662  1.0388 -0.7560
  173POPC   C2823108   0.850   7.199   3.367  0.0062  0.3507  0.3207
  173POPC   H8R23109   0.921   7.260   3.305 -0.6512  0.5381 -0.2572
  173POPC   H8S23110   0.910   7.127   3.427  0.1405  1.1310  1.1318
  173POPC   C2923111   0.765   7.282   3.458 -0.1305  0.1203  0.4022
  173POPC   H9123112   0.663   7.308   3.427  0.0858 -0.6470 -1.0097
  173POPC  C21023113   0.810   7.366   3.552 -0.1868  0.0887  0.4576
  173POPC  H10123114   0.743   7.434   3.607  0.1045  1.4152 -0.7924
  173POPC  C21123115   0.956   7.370   3.587 -0.1072  1.0717  0.0451
  173POPC  H11R23116   0.990   7.469   3.549 -1.5526  0.6844 -2.3551
  173POPC  H11S23117   1.023   7.303   3.528 -0.0443  0.3917  0.8878
  173POPC  C21223118   0.992   7.365   3.735 -0.3699  0.5727  0.0922
  173POPC  H12R23119   0.969   7.269   3.787  0.0791  0.2613 -0.2844
  173POPC  H12S23120   0.941   7.442   3.796  0.3926  1.1813 -0.0377
  173POPC  C21323121   1.139   7.400   3.755 -0.2589  0.2916 -0.2467
  173POPC  H13R23122   1.162   7.498   3.709 -1.1988  0.5080 -0.2580
  173POPC  H13S23123   1.202   7.327   3.699  0.6268  0.9171 -0.0823
  173POPC  C21423124   1.192   7.378   3.897 -0.1245 -0.0617 -0.3501
  173POPC  H14R23125   1.195   7.270   3.926  0.0950  0.8039  2.9851
  173POPC  H14S23126   1.112   7.421   3.960  0.0757  0.4537 -0.4446
  173POPC  C21523127   1.338   7.425   3.901  0.0854 -0.7190 -0.2383
  173POPC  H15R23128   1.342   7.529   3.865 -0.0458 -0.8072 -0.5071
  173POPC  H15S23129   1.397   7.354   3.839  2.1813 -0.7126  1.6823
  173POPC  C21623130   1.393   7.432   4.044 -0.0676  0.0751 -0.2168
  173POPC  H16R23131   1.376   7.334   4.093 -0.5701  0.3653  0.1956
  173POPC  H16S23132   1.337   7.507   4.103 -0.1259  0.0646 -0.2577
  173POPC  C21723133   1.541   7.469   4.046 -0.1866  0.5214  0.3374
  173POPC  H17R23134   1.546   7.571   4.002 -1.5217  1.4591  2.2737
  173POPC  H17S23135   1.597   7.401   3.978  2.0786  2.9375 -0.2842
  173POPC  C21823136   1.611   7.469   4.182 -0.6128  0.1153  0.5592
  173POPC  H18R23137   1.704   7.528   4.171  0.4460 -1.6638 -0.1252
  173POPC  H18S23138   1.621   7.365   4.219  1.8569 -0.7073 -2.3052
  173POPC  H18T23139   1.542   7.518   4.255  1.0634  0.2628  2.0682
  173POPC   C3323140   0.748   6.438   2.801  0.0591  0.1572 -0.3999
  173POPC   H3X23141   0.689   6.516   2.854 -1.2979 -1.0505 -0.0887
  173POPC   H3Y23142   0.819   6.475   2.724  1.2102  1.9394  1.4683
  173POPC   C3423143   0.827   6.346   2.894 -0.1948 -0.3947 -0.7271
  173POPC   H4X23144   0.905   6.287   2.840  0.1545 -0.7635  0.1793
  173POPC   H4Y23145   0.749   6.288   2.947 -1.4208  2.4010  0.6296
  173POPC   C3523146   0.907   6.425   2.998 -0.7409 -0.4577 -0.2585
  173POPC   H5X23147   0.972   6.499   2.946 -0.2160  0.6648  1.9231
  173POPC   H5Y23148   0.975   6.355   3.050 -0.6225  0.5150  0.9182
  173POPC   C3623149   0.827   6.498   3.105 -0.2043 -0.7991  0.3769
  173POPC   H6X23150   0.765   6.423   3.159 -1.2600  0.2096  0.6127
  173POPC   H6Y23151   0.759   6.571   3.056 -1.9509 -2.1106  0.8196
  173POPC   C3723152   0.920   6.563   3.209 -0.0665 -0.2341 -0.0952
  173POPC   H7X23153   0.985   6.640   3.162 -1.1614  0.9736  0.3307
  173POPC   H7Y23154   0.984   6.476   3.236  0.3681  0.3825  0.8679
  173POPC   C3823155   0.847   6.626   3.327  0.0372  0.6845 -0.5219
  173POPC   H8X23156   0.765   6.557   3.357 -0.5591  0.4750 -2.5598
  173POPC   H8Y23157   0.799   6.719   3.288  2.2086  2.2507  0.3992
  173POPC   C3923158   0.952   6.672   3.429 -0.0589 -0.4261  0.0857
  173POPC   H9X23159   1.016   6.745   3.374 -2.6779  0.9240 -1.3237
  173POPC   H9Y23160   1.018   6.588   3.456  0.8201  0.2228 -0.0242
  173POPC  C31023161   0.902   6.738   3.557 -0.0918  0.5276 -0.4131
  173POPC  H10X23162   0.819   6.687   3.612  0.7175 -1.0458 -0.6347
  173POPC  H10Y23163   0.872   6.843   3.536 -0.8955  0.2690 -0.5789
  173POPC  C31123164   1.013   6.756   3.661 -0.4053 -0.2302  0.0629
  173POPC  H11X23165   1.112   6.794   3.625 -0.8880 -0.0011 -1.0700
  173POPC  H11Y23166   1.044   6.656   3.696  0.4590 -0.2145 -0.6249
  173POPC  C31223167   0.964   6.829   3.786 -0.2550 -0.3276  0.1787
  173POPC  H12X23168   0.855   6.806   3.791 -0.2543 -0.5412 -0.6443
  173POPC  H12Y23169   0.981   6.939   3.779 -1.1276 -0.1271  1.0177
  173POPC  C31323170   1.030   6.772   3.912  0.0017  0.4878  0.4185
  173POPC  H13X23171   1.131   6.812   3.934 -0.1041  0.2331  1.3880
  173POPC  H13Y23172   1.053   6.664   3.900 -2.4331 -0.2996  2.4849
  173POPC  C31423173   0.942   6.801   4.033 -0.1020  0.5572  0.3281
  173POPC  H14X23174   0.987   6.742   4.116 -0.2719  0.6198  0.4657
  173POPC  H14Y23175   0.841   6.758   4.013 -0.5398  2.0976 -0.8388
  173POPC  C31523176   0.930   6.946   4.079 -0.0813  0.7998 -0.4420
  173POPC  H15X23177   0.896   6.941   4.184 -1.1324  0.3517 -0.7871
  173POPC  H15Y23178   0.852   6.992   4.014 -1.4027 -2.0064 -0.9307
  173POPC  C31623179   1.060   7.024   4.058  0.0471  0.5592 -0.5348
  173POPC  H16X23180   1.048   7.131   4.083 -3.1950  0.2134 -0.3260
  173POPC  H16Y23181   1.095   7.018   3.953  1.4596 -1.6357  0.0382
  173POPC  H16Z23182   1.137   6.994   4.132 -0.2904  1.3197  0.1272
  174POPC     N23183   3.878   4.485   1.529  0.2675 -0.2542 -0.1864
  174POPC   C1223184   3.930   4.498   1.670 -0.3886 -0.2508  0.0593
  174POPC  H12A23188   3.899   4.594   1.709  0.0954  0.0297 -0.2368
  174POPC  H12B23189   4.037   4.509   1.678 -0.7623  2.6511  1.8859
  174POPC   C1323185   3.925   4.350   1.482  0.4999  0.0247 -0.7594
  174POPC  H13A23190   3.870   4.268   1.527  0.8160  1.0716  1.6132
  174POPC  H13B23191   3.911   4.348   1.375 -1.2806  1.9660 -0.5995
  174POPC  H13C23192   4.029   4.337   1.507  0.0598 -2.2467 -0.0050
  174POPC   C1423186   3.727   4.477   1.524  0.2800 -0.8101  0.2592
  174POPC  H14A23193   3.703   4.478   1.419 -2.2659 -1.7851  0.7932
  174POPC  H14B23194   3.698   4.382   1.565 -0.0973 -0.8018  0.0097
  174POPC  H14C23195   3.696   4.563   1.582 -0.9324  2.3446 -4.6926
  174POPC   C1523187   3.939   4.594   1.444 -0.3483  0.3382  0.1212
  174POPC  H15A23196   4.047   4.601   1.438 -0.4556 -0.2531 -2.7554
  174POPC  H15B23197   3.914   4.687   1.493  0.1614  0.1459  0.7581
  174POPC  H15C23198   3.889   4.587   1.349  0.2805  0.9899 -0.2642
  174POPC   C1123199   3.884   4.396   1.775  0.5176 -0.2586  0.4583
  174POPC  H11A23200   3.935   4.439   1.863  0.6344 -0.5830  0.5501
  174POPC  H11B23201   3.922   4.296   1.744 -1.5615 -0.4871 -1.4736
  174POPC     P23202   3.672   4.294   1.883 -0.0752  0.0194  0.0781
  174POPC   O1323203   3.721   4.161   1.841  0.1327 -0.0049  0.3943
  174POPC   O1423204   3.525   4.308   1.880 -0.0581  0.2599  0.2589
  174POPC   O1223205   3.742   4.406   1.792  0.4860 -0.2404  0.1900
  174POPC   O1123206   3.728   4.328   2.030  0.5924  0.4669 -0.2751
  174POPC    C123207   3.767   4.458   2.075  0.6124  0.4648 -0.2851
  174POPC    HA23208   3.734   4.540   2.009  1.0692  0.1605 -0.9038
  174POPC    HB23209   3.879   4.457   2.076  0.6627  1.1441  3.9661
  174POPC    C223210   3.728   4.493   2.219 -0.2964 -0.1239 -0.3853
  174POPC    HS23211   3.805   4.566   2.252  0.6725 -2.1419  1.9720
  174POPC   O2123212   3.723   4.378   2.304 -0.3939 -0.1746 -0.4614
  174POPC   C2123213   3.844   4.327   2.326 -0.4620 -0.2669 -0.3011
  174POPC   O2223214   3.948   4.379   2.289 -0.4825 -0.1632 -0.2164
  174POPC   C2223215   3.839   4.213   2.427  0.0051  0.4612  0.5484
  174POPC   H2R23216   3.926   4.152   2.394  0.1030 -0.3571  2.2666
  174POPC   H2S23217   3.749   4.151   2.410  1.9317 -1.3101 -3.7636
  174POPC    C323218   3.594   4.566   2.233 -0.3723 -0.3977  0.3570
  174POPC    HX23219   3.518   4.491   2.202 -0.6840 -0.4761  1.2861
  174POPC    HY23220   3.597   4.646   2.155 -1.6763 -1.0029 -0.3286
  174POPC   O3123221   3.568   4.599   2.370 -0.1336  0.5983  0.1690
  174POPC   C3123222   3.446   4.581   2.423 -0.1560  0.1535 -0.0324
  174POPC   O3223223   3.353   4.525   2.368 -0.0180  0.1833 -0.3019
  174POPC   C3223224   3.443   4.659   2.553  0.3910 -0.0067  0.0753
  174POPC   H2X23225   3.343   4.704   2.568 -0.0876 -0.6330 -1.1984
  174POPC   H2Y23226   3.528   4.730   2.568 -0.1443  0.8835 -1.0896
  174POPC   C2323227   3.852   4.255   2.574 -0.2606 -0.0861  0.7265
  174POPC   H3R23228   3.766   4.321   2.597  0.7777  1.5351  0.0350
  174POPC   H3S23229   3.942   4.319   2.588 -0.5670  0.7263 -0.9161
  174POPC   C2423230   3.870   4.135   2.668  0.5603 -0.6535 -0.1487
  174POPC   H4R23231   3.892   4.182   2.766 -0.0713 -4.8108  2.0935
  174POPC   H4S23232   3.952   4.062   2.649  1.2102 -0.2283  1.0142
  174POPC   C2523233   3.747   4.048   2.694  0.3853 -0.4375 -0.2459
  174POPC   H5R23234   3.788   3.970   2.763 -1.2431  0.9673  2.4150
  174POPC   H5S23235   3.731   3.999   2.596 -0.4056 -0.9576  0.1327
  174POPC   C2623236   3.626   4.129   2.740  0.1144 -0.9144 -0.1059
  174POPC   H6R23237   3.600   4.204   2.662  1.0716 -1.9743 -1.4604
  174POPC   H6S23238   3.666   4.173   2.834  0.5598  2.9092 -1.9789
  174POPC   C2723239   3.508   4.039   2.774  0.1132 -1.0248 -0.4052
  174POPC   H7R23240   3.550   3.944   2.813 -1.3999 -0.7883  1.9164
  174POPC   H7S23241   3.463   3.994   2.683 -0.6612  0.8898 -1.0045
  174POPC   C2823242   3.397   4.111   2.850  1.1888 -0.3927  0.5738
  174POPC   H8R23243   3.316   4.127   2.775  0.8038 -2.2538  0.5745
  174POPC   H8S23244   3.436   4.202   2.901  1.6268 -0.5742  0.5615
  174POPC   C2923245   3.329   4.025   2.953 -0.0303 -0.3515 -0.1790
  174POPC   H9123246   3.230   3.989   2.924 -0.4970 -0.4144  1.4295
  174POPC  C21023247   3.381   3.976   3.067 -0.4684 -0.2301  0.0724
  174POPC  H10123248   3.325   3.895   3.115 -1.3600  0.7187  0.6566
  174POPC  C21123249   3.514   4.016   3.125 -0.2524 -0.3117 -0.3662
  174POPC  H11R23250   3.496   4.092   3.203 -2.1762  1.8561 -2.8251
  174POPC  H11S23251   3.589   4.054   3.053 -1.5529 -0.2924 -1.7473
  174POPC  C21223252   3.588   3.892   3.175 -0.3229 -0.0383  0.4122
  174POPC  H12R23253   3.633   3.831   3.094  1.8194  0.2107  1.3663
  174POPC  H12S23254   3.521   3.827   3.236 -2.1057 -0.5515 -2.0207
  174POPC  C21323255   3.708   3.931   3.262  0.2368 -0.3950 -0.1943
  174POPC  H13R23256   3.668   3.990   3.348  1.8795 -0.9520  0.9596
  174POPC  H13S23257   3.786   3.997   3.219 -0.7384  0.4286 -0.7289
  174POPC  C21423258   3.779   3.808   3.318 -0.4331 -0.5942  0.2275
  174POPC  H14R23259   3.823   3.745   3.238 -1.7639 -1.1731 -0.0527
  174POPC  H14S23260   3.711   3.743   3.376 -2.0031  2.9946  2.5899
  174POPC  C21523261   3.905   3.839   3.399 -0.1231 -0.3341 -0.3512
  174POPC  H15R23262   3.878   3.904   3.485  0.1961  0.6871 -1.0184
  174POPC  H15S23263   3.975   3.887   3.327 -1.8980  1.3314 -1.0055
  174POPC  C21623264   3.980   3.718   3.456  0.3888 -0.0547 -0.4222
  174POPC  H16R23265   4.085   3.753   3.460  0.3613  0.0343 -0.4603
  174POPC  H16S23266   3.968   3.633   3.386 -3.0052 -0.3075  0.3588
  174POPC  C21723267   3.940   3.683   3.600 -0.1297  0.9276 -0.3216
  174POPC  H17R23268   3.937   3.574   3.621  0.6964  1.4989  3.0313
  174POPC  H17S23269   3.834   3.710   3.613 -0.7571 -1.8688  0.5923
  174POPC  C21823270   4.020   3.750   3.712  0.4300 -0.6094  0.2050
  174POPC  H18R23271   4.000   3.859   3.714 -1.6997 -0.9363 -1.3389
  174POPC  H18S23272   4.129   3.737   3.702  0.3976 -1.0141  0.3668
  174POPC  H18T23273   3.986   3.709   3.810  1.1548  1.1098  1.1914
  174POPC   C3323274   3.451   4.544   2.654  0.7027 -0.0655 -0.0156
  174POPC   H3X23275   3.545   4.488   2.634  0.6521 -0.2389  0.2226
  174POPC   H3Y23276   3.377   4.462   2.640 -1.1372  1.4041  0.9503
  174POPC   C3423277   3.459   4.602   2.795  0.4307  0.2300 -0.1216
  174POPC   H4X23278   3.372   4.671   2.803 -0.8069 -0.9509 -2.7130
  174POPC   H4Y23279   3.553   4.660   2.803  2.2201 -2.1424 -2.9084
  174POPC   C3523280   3.439   4.505   2.912  0.2980  0.1422 -0.2181
  174POPC   H5X23281   3.513   4.423   2.900 -0.1404 -0.1446 -1.0705
  174POPC   H5Y23282   3.341   4.456   2.891 -0.0763  0.5329  0.6302
  174POPC   C3623283   3.427   4.579   3.045  0.0176 -0.5362  0.1374
  174POPC   H6X23284   3.369   4.670   3.021 -0.3343 -0.3814  1.5358
  174POPC   H6Y23285   3.529   4.614   3.075  0.3289 -0.8455 -0.5462
  174POPC   C3723286   3.367   4.493   3.156 -0.8836 -0.4732 -0.2938
  174POPC   H7X23287   3.418   4.394   3.154 -0.4321 -0.2997  1.5280
  174POPC   H7Y23288   3.263   4.483   3.120 -1.5929  0.0727  1.5603
  174POPC   C3823289   3.364   4.562   3.293  0.5626 -0.4922 -0.2433
  174POPC   H8X23290   3.312   4.656   3.262  0.2459 -0.5889 -0.0027
  174POPC   H8Y23291   3.461   4.592   3.339  0.1709  1.7062 -0.7733
  174POPC   C3923292   3.275   4.491   3.394 -0.2266  0.2019 -0.4485
  174POPC   H9X23293   3.172   4.505   3.354  0.2643 -3.4295 -3.2172
  174POPC   H9Y23294   3.263   4.545   3.491 -2.2399 -1.6056  0.3536
  174POPC  C31023295   3.306   4.343   3.413 -0.0045  0.3383  0.2804
  174POPC  H10X23296   3.408   4.329   3.456 -0.4355 -1.3860  0.7949
  174POPC  H10Y23297   3.319   4.299   3.311  1.0379  3.3215 -0.9196
  174POPC  C31123298   3.186   4.273   3.476  0.0490  0.2040  0.2333
  174POPC  H11X23299   3.096   4.258   3.412  0.1029  0.0813  0.1854
  174POPC  H11Y23300   3.144   4.354   3.539  1.5536  0.0634  1.4340
  174POPC  C31223301   3.228   4.150   3.557  0.8454  0.0416 -0.4199
  174POPC  H12X23302   3.140   4.123   3.619  1.8812  0.3045  1.1946
  174POPC  H12Y23303   3.302   4.193   3.629  0.5788  0.5842 -0.4676
  174POPC  C31323304   3.286   4.028   3.486 -0.4477 -0.6022 -0.3720
  174POPC  H13X23305   3.368   4.067   3.422 -0.9688  1.0363 -0.0635
  174POPC  H13Y23306   3.210   3.991   3.413 -0.8387  3.1798 -1.9722
  174POPC  C31423307   3.329   3.923   3.588 -0.0620  0.0553  0.1428
  174POPC  H14X23308   3.245   3.864   3.631 -1.1565  1.6081  0.1380
  174POPC  H14Y23309   3.373   3.973   3.677 -1.7996 -1.8540  2.1588
  174POPC  C31523310   3.423   3.810   3.543 -0.3758 -0.1905  0.0988
  174POPC  H15X23311   3.442   3.744   3.630 -0.1475 -0.9783 -0.5474
  174POPC  H15Y23312   3.512   3.849   3.489  0.2829  1.7303  2.4380
  174POPC  C31623313   3.360   3.714   3.443 -0.0355 -0.1065 -0.1951
  174POPC  H16X23314   3.428   3.631   3.413  1.8872  1.4032 -0.0864
  174POPC  H16Y23315   3.338   3.778   3.355 -2.3388 -0.2063  0.2780
  174POPC  H16Z23316   3.262   3.680   3.481  0.2221 -0.2865  0.3113
  175POPC     N23317   2.773   0.436   1.693 -0.1044 -0.2414  0.4871
  175POPC   C1223318   2.912   0.448   1.638 -0.3722  0.2401 -0.0864
  175POPC  H12A23322   2.900   0.438   1.531  0.2868  2.8676 -0.4337
  175POPC  H12B23323   2.969   0.363   1.672 -0.3443  0.6804  0.9731
  175POPC   C1323319   2.780   0.420   1.843  0.9332  0.2016  0.4882
  175POPC  H13A23324   2.851   0.494   1.877  0.2636  0.5588  1.1499
  175POPC  H13B23325   2.682   0.425   1.889  0.6800  0.1806 -0.0495
  175POPC  H13C23326   2.826   0.326   1.869  0.9223 -0.1864 -0.8780
  175POPC   C1423320   2.704   0.566   1.658  0.1795 -0.0542  0.6253
  175POPC  H14A23327   2.758   0.656   1.684  1.4507 -0.2847 -1.1280
  175POPC  H14B23328   2.683   0.565   1.552 -0.6154  0.5657  0.7706
  175POPC  H14C23329   2.609   0.560   1.708  0.1326 -2.8250  0.2625
  175POPC   C1523321   2.703   0.314   1.637 -0.4250  0.1991 -0.0741
  175POPC  H15A23330   2.617   0.303   1.701 -0.4314  2.3616  0.3514
  175POPC  H15B23331   2.760   0.223   1.646  0.1549  0.7557  2.3450
  175POPC  H15C23332   2.685   0.329   1.531 -2.9580 -0.3366  0.2605
  175POPC   C1123333   2.995   0.570   1.678 -0.2406  0.0326  0.2692
  175POPC  H11A23334   2.941   0.665   1.660 -0.8919 -0.1929  1.0025
  175POPC  H11B23335   3.092   0.569   1.624 -0.1766  0.5877  0.3697
  175POPC     P23336   3.100   0.692   1.880 -0.1620  0.0006 -0.0223
  175POPC   O1323337   3.061   0.706   2.022  0.2702 -0.5133  0.1445
  175POPC   O1423338   3.066   0.811   1.798 -0.3469 -0.1594 -0.1771
  175POPC   O1223339   3.025   0.565   1.818  0.3363 -0.3729  0.1356
  175POPC   O1123340   3.256   0.662   1.864 -0.1258  0.3902 -0.4197
  175POPC    C123341   3.295   0.525   1.845 -0.8043  0.0898  0.3428
  175POPC    HA23342   3.404   0.511   1.830 -0.9459  0.7839 -1.5063
  175POPC    HB23343   3.252   0.483   1.751  0.9558  1.1668 -0.9849
  175POPC    C223344   3.258   0.436   1.965 -0.0749 -0.3095  0.2706
  175POPC    HS23345   3.154   0.397   1.957 -0.1560 -0.4832  2.1431
  175POPC   O2123346   3.278   0.519   2.079  0.0176  0.0218  0.0118
  175POPC   C2123347   3.231   0.470   2.193  0.5336 -0.0890  0.1797
  175POPC   O2223348   3.141   0.388   2.207  0.2315  0.1276 -0.4702
  175POPC   C2223349   3.298   0.550   2.304  0.1000 -0.0988  0.4505
  175POPC   H2R23350   3.262   0.656   2.303 -0.5723 -0.2919 -2.5548
  175POPC   H2S23351   3.403   0.551   2.269  0.3167 -1.1913  1.0662
  175POPC    C323352   3.355   0.316   1.971  0.5248  0.1520 -0.0876
  175POPC    HX23353   3.339   0.261   1.876 -1.4347  2.1746 -0.9841
  175POPC    HY23354   3.326   0.240   2.047  1.0533 -0.6662 -0.6937
  175POPC   O3123355   3.493   0.347   1.988  0.6922 -0.3542 -0.5341
  175POPC   C3123356   3.555   0.302   2.098  0.4302  0.1370 -0.1855
  175POPC   O3223357   3.514   0.210   2.166 -0.2303  0.2799 -0.3851
  175POPC   C3223358   3.669   0.396   2.133 -0.1847  0.7342  0.2276
  175POPC   H2X23359   3.632   0.493   2.172  1.2959  0.4589  2.4263
  175POPC   H2Y23360   3.729   0.413   2.041  1.6812 -0.9691  1.0966
  175POPC   C2323361   3.282   0.480   2.439 -0.4825  0.1520  0.5158
  175POPC   H3R23362   3.302   0.372   2.425  0.8984  0.7153 -2.1587
  175POPC   H3S23363   3.181   0.485   2.485 -0.5887  2.2402  0.1220
  175POPC   C2423364   3.371   0.535   2.550  0.3542 -0.5535  0.1961
  175POPC   H4R23365   3.340   0.636   2.583 -2.6584 -1.0465 -1.0145
  175POPC   H4S23366   3.478   0.538   2.518 -0.2432 -0.9778 -1.9039
  175POPC   C2523367   3.365   0.435   2.666 -0.2253  0.0989  0.7295
  175POPC   H5R23368   3.389   0.334   2.627 -0.2392 -0.2561  1.6369
  175POPC   H5S23369   3.259   0.438   2.701  0.1075 -2.7016  2.0946
  175POPC   C2623370   3.448   0.469   2.790  0.2370  0.0120  0.4455
  175POPC   H6R23371   3.545   0.506   2.752 -0.9993  0.1525 -2.7624
  175POPC   H6S23372   3.467   0.368   2.833  2.2047  0.2903  0.2480
  175POPC   C2723373   3.388   0.565   2.893  0.0943  0.2693  0.1204
  175POPC   H7R23374   3.278   0.551   2.884  0.1865  0.1495 -0.9670
  175POPC   H7S23375   3.414   0.667   2.856 -2.5065  0.5096 -1.1833
  175POPC   C2823376   3.436   0.531   3.034 -0.1909 -0.3425  0.0707
  175POPC   H8R23377   3.545   0.554   3.038 -0.7452  3.6309 -3.7863
  175POPC   H8S23378   3.423   0.422   3.052 -0.8466 -0.1259  0.9085
  175POPC   C2923379   3.377   0.622   3.138  0.2992 -0.2249  0.2467
  175POPC   H9123380   3.331   0.716   3.105  0.5697  0.8437  2.8131
  175POPC  C21023381   3.365   0.585   3.266 -0.6617 -0.3578  0.1166
  175POPC  H10123382   3.305   0.656   3.325  0.9375  3.4462 -2.6595
  175POPC  C21123383   3.406   0.452   3.323 -0.0118 -0.1254  0.1929
  175POPC  H11R23384   3.453   0.386   3.247  1.0700 -2.1211  2.5265
  175POPC  H11S23385   3.314   0.395   3.348  0.9773 -2.0475 -0.4261
  175POPC  C21223386   3.484   0.454   3.454  0.2060 -0.3299  0.0665
  175POPC  H12R23387   3.517   0.354   3.489 -1.1843 -1.4278 -1.6746
  175POPC  H12S23388   3.417   0.497   3.532 -0.5417 -1.6465  0.1579
  175POPC  C21323389   3.613   0.536   3.450  0.1372 -0.2351 -0.1920
  175POPC  H13R23390   3.668   0.547   3.546 -0.2963  0.9839 -0.0785
  175POPC  H13S23391   3.594   0.637   3.407 -1.4537  0.3382  1.8097
  175POPC  C21423392   3.720   0.488   3.351  0.5534  0.0754  0.1048
  175POPC  H14R23393   3.673   0.462   3.254 -0.7587 -3.4634  1.6078
  175POPC  H14S23394   3.772   0.401   3.397  0.3148 -0.3872 -0.4912
  175POPC  C21523395   3.833   0.589   3.332  0.2237  0.3607 -0.3654
  175POPC  H15R23396   3.867   0.625   3.431  0.5057 -0.4398 -0.1665
  175POPC  H15S23397   3.789   0.679   3.285 -1.0066  0.4966  1.0280
  175POPC  C21623398   3.955   0.537   3.255  0.3104  0.0330 -0.0098
  175POPC  H16R23399   3.995   0.447   3.306 -0.3363  0.5946  1.4961
  175POPC  H16S23400   4.039   0.609   3.251 -0.1530  0.4837 -2.1759
  175POPC  C21723401   3.931   0.514   3.105 -0.3245 -0.0342  0.1025
  175POPC  H17R23402   3.880   0.604   3.065 -0.1654  0.3509  0.7604
  175POPC  H17S23403   3.852   0.436   3.094  0.9767 -1.3671  0.1051
  175POPC  C21823404   4.062   0.480   3.034  0.3049  0.0199  1.2243
  175POPC  H18R23405   4.129   0.564   3.063  0.4919 -0.1659  1.3292
  175POPC  H18S23406   4.061   0.478   2.923  0.6423  0.4523  1.2145
  175POPC  H18T23407   4.099   0.384   3.075  0.4472 -1.7109 -2.7487
  175POPC   C3323408   3.768   0.328   2.228 -0.6591 -0.6480 -0.2667
  175POPC   H3X23409   3.864   0.380   2.209 -0.6941  0.3722  2.1902
  175POPC   H3Y23410   3.781   0.222   2.196  0.5414  0.0770 -2.2826
  175POPC   C3423411   3.732   0.344   2.376 -0.5196 -0.4506 -0.2542
  175POPC   H4X23412   3.627   0.311   2.393 -1.3144  1.2668 -1.6700
  175POPC   H4Y23413   3.734   0.452   2.401  2.4772 -0.0346 -2.0173
  175POPC   C3523414   3.833   0.284   2.474 -0.3118 -0.2599 -0.3505
  175POPC   H5X23415   3.933   0.327   2.454  0.1451 -1.7983 -1.5245
  175POPC   H5Y23416   3.842   0.173   2.467  0.6030 -0.3429  1.7875
  175POPC   C3623417   3.780   0.310   2.615  0.3606  0.1454 -0.1742
  175POPC   H6X23418   3.693   0.245   2.637  1.8274 -2.1319 -0.9391
  175POPC   H6Y23419   3.736   0.412   2.626  1.0387  0.5023 -0.7864
  175POPC   C3723420   3.889   0.293   2.721  0.1710 -0.3189 -0.0515
  175POPC   H7X23421   3.854   0.331   2.820  1.0110 -1.5042  0.7122
  175POPC   H7Y23422   3.976   0.354   2.687  0.5659 -0.5607  0.5266
  175POPC   C3823423   3.940   0.150   2.738  0.1350 -0.3772 -0.4370
  175POPC   H8X23424   3.993   0.111   2.648  0.9370 -0.1088 -0.0908
  175POPC   H8Y23425   3.854   0.081   2.746 -1.2198  1.5317  2.1047
  175POPC   C3923426   4.017   0.123   2.868 -0.0382 -0.1408 -0.2857
  175POPC   H9X23427   4.094   0.202   2.882  0.3197 -0.6369  0.5406
  175POPC   H9Y23428   4.069   0.025   2.865 -1.5907 -0.9528 -1.5305
  175POPC  C31023429   3.917   0.123   2.984  0.2839  0.0777 -0.0069
  175POPC  H10X23430   3.833   0.055   2.957  1.4235 -0.6768 -1.8475
  175POPC  H10Y23431   3.871   0.223   2.993 -1.1822 -0.5854  0.0736
  175POPC  C31123432   3.995   0.105   3.114 -0.0584 -0.0858  0.1763
  175POPC  H11X23433   4.071   0.185   3.126 -1.9613  1.8514 -0.4632
  175POPC  H11Y23434   4.039   0.003   3.114  1.8823  0.6835  1.5348
  175POPC  C31223435   3.904   0.118   3.236 -0.1876 -0.0953  0.0804
  175POPC  H12X23436   3.839   0.031   3.256 -0.2777 -0.0978 -0.2146
  175POPC  H12Y23437   3.840   0.206   3.209  0.3506  0.0991 -0.5801
  175POPC  C31323438   3.982   0.136   3.366  0.6879 -0.0220 -0.4515
  175POPC  H13X23439   3.977   0.244   3.393 -0.2297 -0.4567  1.1646
  175POPC  H13Y23440   4.085   0.099   3.348  0.3443 -0.9580 -0.5163
  175POPC  C31423441   3.915   0.053   3.475 -0.3307  0.7768 -0.4607
  175POPC  H14X23442   3.957   7.912   3.468  1.4422  1.2430  1.9589
  175POPC  H14Y23443   3.806   0.042   3.456 -0.2380 -1.3474  0.0387
  175POPC  C31523444   3.934   0.117   3.613 -0.1924  0.2112 -0.2139
  175POPC  H15X23445   3.893   0.044   3.686  1.0639 -0.8371 -0.5388
  175POPC  H15Y23446   3.874   0.208   3.630  1.9127  2.1395 -2.5545
  175POPC  C31623447   4.082   0.140   3.642  0.0497 -0.7552 -0.6565
  175POPC  H16X23448   4.132   0.201   3.563 -0.5789  1.0332  0.3020
  175POPC  H16Y23449   4.118   0.035   3.651 -0.6341 -0.9765 -0.4710
  175POPC  H16Z23450   4.087   0.183   3.744  0.1518 -2.0003 -0.1264
  176POPC     N23451   0.884   5.191   2.304 -0.3699  0.1619  0.1155
  176POPC   C1223452   1.028   5.229   2.277 -0.2671 -0.2116  0.1295
  176POPC  H12A23456   1.070   5.268   2.369  0.8380 -1.6154  0.2254
  176POPC  H12B23457   1.031   5.313   2.209 -1.2582  1.1716  1.7613
  176POPC   C1323453   0.803   5.318   2.300  0.1147  0.4790  0.3378
  176POPC  H13A23458   0.834   5.381   2.382  0.0439 -0.5942  1.1913
  176POPC  H13B23459   0.813   5.371   2.206  3.5359  0.0034  0.3484
  176POPC  H13C23460   0.699   5.294   2.310  0.0716 -0.1318 -1.4224
  176POPC   C1423454   0.830   5.089   2.208 -0.2597  0.3261 -0.1199
  176POPC  H14A23461   0.885   4.996   2.217  1.4962  1.4068  0.3881
  176POPC  H14B23462   0.727   5.066   2.234 -0.9338  2.9255 -0.4048
  176POPC  H14C23463   0.815   5.121   2.105 -1.4496  1.6172  0.4334
  176POPC   C1523455   0.871   5.133   2.443  0.2765  0.2047  0.1940
  176POPC  H15A23464   0.870   5.214   2.515 -3.7092  1.8519 -1.5967
  176POPC  H15B23465   0.953   5.066   2.467 -1.8718 -2.1961  1.0654
  176POPC  H15C23466   0.785   5.069   2.452 -0.3588  1.1446  0.8673
  176POPC   C1123467   1.124   5.121   2.228 -0.1293 -0.0868  0.1227
  176POPC  H11A23468   1.226   5.164   2.234 -0.4885  1.1196 -2.0287
  176POPC  H11B23469   1.103   5.076   2.128  0.7344 -0.0292 -0.0862
  176POPC     P23470   1.227   4.907   2.300 -0.1007 -0.0475  0.1086
  176POPC   O1323471   1.290   4.929   2.168 -0.5884 -0.1248 -0.1370
  176POPC   O1423472   1.164   4.776   2.329 -0.0837 -0.0383  0.1892
  176POPC   O1223473   1.111   5.015   2.324 -0.0327 -0.0007  0.2300
  176POPC   O1123474   1.324   4.955   2.418 -0.2391 -0.0826  0.2373
  176POPC    C123475   1.317   4.898   2.549 -0.1956  0.0517  0.2985
  176POPC    HA23476   1.412   4.923   2.601  0.8298  2.3393 -2.5811
  176POPC    HB23477   1.310   4.787   2.541 -1.7719  0.1779 -0.2633
  176POPC    C223478   1.203   4.950   2.638 -0.1356 -0.0087  0.4112
  176POPC    HS23479   1.113   4.917   2.582  1.1107 -1.0075 -1.0371
  176POPC   O2123480   1.211   5.091   2.662  0.0480  0.0619 -0.0479
  176POPC   C2123481   1.110   5.146   2.730  0.0278  0.1251 -0.1299
  176POPC   O2223482   1.003   5.090   2.749 -0.2544  0.6830 -0.0565
  176POPC   C2223483   1.132   5.293   2.759 -0.0735  0.2190 -0.5317
  176POPC   H2R23484   1.044   5.344   2.713 -0.0884  0.0465 -0.6926
  176POPC   H2S23485   1.233   5.315   2.718 -0.1824  1.3067 -0.2375
  176POPC    C323486   1.208   4.869   2.768  1.1798 -0.0074  0.3717
  176POPC    HX23487   1.262   4.776   2.741  0.7800 -0.3824  0.8485
  176POPC    HY23488   1.106   4.836   2.799  1.3111 -0.4016  0.3931
  176POPC   O3123489   1.271   4.935   2.878  0.5063  0.3209  0.5616
  176POPC   C3123490   1.264   4.877   2.998  0.9195 -0.6393  0.1255
  176POPC   O3223491   1.217   4.767   3.021 -0.3349 -0.2354 -0.4653
  176POPC   C3223492   1.318   4.969   3.106  0.1657 -0.0197 -0.0166
  176POPC   H2X23493   1.237   5.039   3.136 -0.7267 -1.4252  0.8871
  176POPC   H2Y23494   1.406   5.028   3.071  0.5575 -0.0431  0.8994
  176POPC   C2323495   1.141   5.314   2.910 -0.0695  0.0285 -0.5065
  176POPC   H3R23496   1.212   5.251   2.968  1.1229 -0.1718 -2.1489
  176POPC   H3S23497   1.038   5.293   2.948 -0.9770  1.9875 -1.8542
  176POPC   C2423498   1.173   5.458   2.949  1.1849 -0.3125 -0.2776
  176POPC   H4R23499   1.125   5.533   2.884  0.6960  1.6276  2.2347
  176POPC   H4S23500   1.283   5.468   2.933  1.3633 -1.3790  0.2005
  176POPC   C2523501   1.127   5.491   3.092 -0.2944 -0.1494 -0.7844
  176POPC   H5R23502   1.160   5.407   3.157 -1.9888  0.2803  0.6498
  176POPC   H5S23503   1.019   5.476   3.110 -0.2597 -1.2120 -1.3806
  176POPC   C2623504   1.177   5.625   3.146 -0.7645 -0.3717  0.2099
  176POPC   H6R23505   1.287   5.639   3.133 -0.8100 -0.3922 -0.2210
  176POPC   H6S23506   1.138   5.653   3.246 -0.7300  0.4005  0.0051
  176POPC   C2723507   1.115   5.748   3.080  0.1355  0.0672  0.1674
  176POPC   H7R23508   1.007   5.747   3.109 -0.1682  2.3261 -0.7892
  176POPC   H7S23509   1.117   5.734   2.970  3.1793 -1.4486  0.3715
  176POPC   C2823510   1.186   5.878   3.117  0.3594  0.1438 -0.5229
  176POPC   H8R23511   1.135   5.960   3.062  0.0001 -0.9747 -1.8771
  176POPC   H8S23512   1.289   5.880   3.076  0.8250  0.2920  0.6233
  176POPC   C2923513   1.195   5.914   3.263 -0.0487 -0.0558 -0.4453
  176POPC   H9123514   1.288   5.892   3.318 -0.8985  1.6540  1.7309
  176POPC  C21023515   1.091   5.962   3.332 -0.0788 -0.9830  0.1527
  176POPC  H10123516   1.107   5.971   3.440 -0.7198  1.7493  0.0427
  176POPC  C21123517   0.959   5.987   3.265  0.2043 -0.1228 -0.0878
  176POPC  H11R23518   0.900   5.896   3.290 -0.8593  0.8183  0.8953
  176POPC  H11S23519   0.952   5.988   3.154 -1.3268 -2.5100 -0.0432
  176POPC  C21223520   0.919   6.132   3.293 -0.4032 -0.3054  0.0093
  176POPC  H12R23521   0.830   6.164   3.235 -1.7492  0.9653  2.7006
  176POPC  H12S23522   0.990   6.215   3.271  0.4085 -0.7287  1.0170
  176POPC  C21323523   0.884   6.150   3.441 -0.3757 -0.0353 -0.0168
  176POPC  H13R23524   0.961   6.107   3.508 -1.2633 -3.5541 -1.1305
  176POPC  H13S23525   0.794   6.086   3.454 -0.1163 -0.0824  1.6169
  176POPC  C21423526   0.850   6.297   3.465 -0.1578  0.1076 -0.5571
  176POPC  H14R23527   0.772   6.336   3.397  0.0380  0.6356 -0.4816
  176POPC  H14S23528   0.946   6.353   3.456  0.2999 -0.2988  1.4144
  176POPC  C21523529   0.793   6.330   3.603  0.2773 -0.3997 -0.2530
  176POPC  H15R23530   0.724   6.417   3.598 -0.2316 -0.8492 -1.0277
  176POPC  H15S23531   0.882   6.353   3.666  0.2160 -1.2064  0.1286
  176POPC  C21623532   0.708   6.224   3.672 -0.1022  0.0457 -0.0281
  176POPC  H16R23533   0.769   6.134   3.697  0.2439  0.7086  1.5446
  176POPC  H16S23534   0.638   6.178   3.598 -0.6414 -0.3320  0.7073
  176POPC  C21723535   0.644   6.277   3.800  0.1041 -0.1240  0.1451
  176POPC  H17R23536   0.581   6.362   3.767  0.5114  0.1381  0.0429
  176POPC  H17S23537   0.709   6.318   3.881 -0.4711 -0.2926  0.7030
  176POPC  C21823538   0.555   6.175   3.871 -0.1059 -0.2350 -0.2759
  176POPC  H18R23539   0.472   6.157   3.801  0.7493  1.8725 -1.8693
  176POPC  H18S23540   0.509   6.217   3.963  1.4634 -1.4590  1.1102
  176POPC  H18T23541   0.627   6.093   3.890  0.5703  0.2775 -0.5937
  176POPC   C3323542   1.357   4.885   3.228  0.1213 -0.1817 -0.1130
  176POPC   H3X23543   1.406   4.792   3.193 -0.3338 -0.7642  0.7583
  176POPC   H3Y23544   1.263   4.853   3.278 -0.1010  0.3131 -0.2121
  176POPC   C3423545   1.456   4.963   3.314  0.3562 -0.5432 -0.0536
  176POPC   H4X23546   1.402   5.045   3.366  0.4887 -0.5521  0.0999
  176POPC   H4Y23547   1.532   5.014   3.252 -0.0785 -0.1947 -0.3066
  176POPC   C3523548   1.528   4.863   3.404 -0.0209 -0.5187  0.2823
  176POPC   H5X23549   1.596   4.802   3.339 -0.5326 -0.1671 -0.5926
  176POPC   H5Y23550   1.460   4.788   3.450  0.7521  0.0997  2.4966
  176POPC   C3623551   1.602   4.930   3.520 -0.0093  0.1605 -0.1180
  176POPC   H6X23552   1.525   4.991   3.572 -0.8863  0.4909 -1.7424
  176POPC   H6Y23553   1.682   4.997   3.483 -1.2555  1.7843  0.0741
  176POPC   C3723554   1.671   4.833   3.615  0.0594  0.3440  0.0178
  176POPC   H7X23555   1.723   4.891   3.695  2.7758  0.3538 -1.6944
  176POPC   H7Y23556   1.756   4.800   3.552 -1.0963  0.7831 -1.7944
  176POPC   C3823557   1.588   4.725   3.685  0.0465  0.3337 -0.0143
  176POPC   H8X23558   1.640   4.643   3.740 -1.2158  0.1828  0.9781
  176POPC   H8Y23559   1.526   4.671   3.611  3.4032 -1.9535 -1.2499
  176POPC   C3923560   1.483   4.786   3.779 -0.3798  0.2407 -0.4329
  176POPC   H9X23561   1.416   4.848   3.716  1.3295  2.5860 -0.0067
  176POPC   H9Y23562   1.538   4.852   3.849  1.2931  1.0251 -2.4307
  176POPC  C31023563   1.403   4.678   3.852 -0.0908  0.3864  0.1004
  176POPC  H10X23564   1.471   4.603   3.896 -0.9865 -0.3254  0.2865
  176POPC  H10Y23565   1.341   4.627   3.775 -0.3513 -0.0938  0.6248
  176POPC  C31123566   1.310   4.740   3.957 -0.2029  0.1013  0.1684
  176POPC  H11X23567   1.243   4.812   3.905 -0.2579  0.0127  0.1155
  176POPC  H11Y23568   1.385   4.790   4.022 -0.1052  1.3763 -0.8885
  176POPC  C31223569   1.219   4.633   4.018  0.3905 -0.3044  0.3442
  176POPC  H12X23570   1.269   4.534   4.011  0.3011 -0.3740  0.6529
  176POPC  H12Y23571   1.124   4.633   3.960  0.6405 -0.0349 -0.0651
  176POPC  C31323572   1.206   4.654   4.169 -0.0705 -0.1449  0.2834
  176POPC  H13X23573   1.299   4.697   4.212  0.0799 -0.4084  0.2176
  176POPC  H13Y23574   1.180   4.556   4.215  0.8870 -0.1464  0.8300
  176POPC  C31423575   1.087   4.741   4.210 -0.0039 -0.1325  0.4515
  176POPC  H14X23576   1.000   4.714   4.147 -1.4001 -0.0032  2.2757
  176POPC  H14Y23577   1.109   4.849   4.197  1.6075 -0.7700 -2.6622
  176POPC  C31523578   1.054   4.729   4.359 -0.1446  0.1014  0.4423
  176POPC  H15X23579   1.008   4.628   4.373  0.7811 -0.7128 -2.1043
  176POPC  H15Y23580   0.983   4.810   4.384 -0.7972 -0.7675  1.4334
  176POPC  C31623581   1.175   4.763   4.446  0.7208 -0.4474 -0.5318
  176POPC  H16X23582   1.149   4.766   4.554 -2.4101  0.7282 -1.2772
  176POPC  H16Y23583   1.203   4.870   4.434  1.3221 -0.5691 -0.2365
  176POPC  H16Z23584   1.261   4.693   4.439  0.2013 -0.9077 -2.7393
  177POPC     N23585   5.482   7.923   2.309 -0.1614 -0.1095  0.4579
  177POPC   C1223586   5.433   7.823   2.411  0.3107 -0.5539  0.2537
  177POPC  H12A23590   5.415   7.881   2.500  0.3140  0.9250 -0.6935
  177POPC  H12B23591   5.520   7.759   2.420 -2.4183 -5.2191 -4.0769
  177POPC   C1323587   5.622   7.952   2.357  0.1609 -0.3344 -0.3359
  177POPC  H13A23592   5.685   0.055   2.297  1.0459 -2.0856 -1.3935
  177POPC  H13B23593   5.613   0.030   2.457  3.2819 -0.4660  0.0783
  177POPC  H13C23594   5.675   7.859   2.373 -0.2041 -0.6800 -1.1154
  177POPC   C1423588   5.482   7.846   2.179  0.0734  0.4241  0.1412
  177POPC  H14A23595   5.381   7.813   2.160  0.3730  0.1872 -1.1292
  177POPC  H14B23596   5.517   7.913   2.101 -0.2167  1.9621  1.3232
  177POPC  H14C23597   5.547   7.760   2.184  0.1782  0.4635 -0.4836
  177POPC   C1523589   5.397   0.085   2.299  0.3528  0.3131  0.7668
  177POPC  H15A23598   5.300   0.052   2.264  1.6813 -1.0091 -1.8908
  177POPC  H15B23599   5.430   0.148   2.218  2.2514 -0.9982  0.4944
  177POPC  H15C23600   5.387   0.143   2.389  0.3566  1.1827  0.2166
  177POPC   C1123601   5.305   7.743   2.387 -0.0070 -0.2042  0.7697
  177POPC  H11A23602   5.283   7.686   2.479 -1.4639 -1.0812 -0.0992
  177POPC  H11B23603   5.333   7.667   2.311 -0.9908  0.8411 -0.6555
  177POPC     P23604   5.064   7.734   2.367  0.0307  0.2311 -0.1020
  177POPC   O1323605   5.087   7.592   2.333  0.3162  0.3146 -0.2621
  177POPC   O1423606   4.948   7.797   2.300  0.3937  0.7776 -0.2142
  177POPC   O1223607   5.194   7.826   2.353  0.2620 -0.0297  0.3057
  177POPC   O1123608   5.036   7.748   2.524  0.5460  0.2183 -0.0097
  177POPC    C123609   5.016   7.881   2.573 -0.0989  0.0955  0.0675
  177POPC    HA23610   4.924   7.897   2.634  0.6981  1.6897  0.8841
  177POPC    HB23611   5.028   0.002   2.500 -0.0579  0.4515  0.4753
  177POPC    C223612   5.134   7.925   2.662  0.2761  0.2776 -0.5175
  177POPC    HS23613   5.227   7.935   2.603  0.4423 -2.2793 -0.7179
  177POPC   O2123614   5.152   7.821   2.758  0.2338  0.6826 -0.0708
  177POPC   C2123615   5.278   7.801   2.798  0.0696  0.4540  0.3309
  177POPC   O2223616   5.375   7.844   2.739 -0.1277 -0.1450 -0.4281
  177POPC   C2223617   5.280   7.727   2.932 -0.1973  0.2063  0.1982
  177POPC   H2R23618   5.298   7.619   2.916  0.1333 -0.0237  2.0808
  177POPC   H2S23619   5.180   7.735   2.979 -1.1828  1.0214 -1.9327
  177POPC    C323620   5.116   0.101   2.729 -0.4469 -0.0368  0.0321
  177POPC    HX23621   5.085   0.175   2.651  2.2008 -0.5639 -1.5891
  177POPC    HY23622   5.218   0.128   2.764 -0.2224 -2.1211  1.0435
  177POPC   O3123623   5.018   0.096   2.833 -0.3643  0.1446  0.1178
  177POPC   C3123624   5.063   0.086   2.958  0.2275 -0.3851 -0.1305
  177POPC   O3223625   5.182   0.074   2.985  0.3478  0.6703 -0.1710
  177POPC   C3223626   4.949   0.080   3.058 -0.2107 -0.1605 -0.6143
  177POPC   H2X23627   4.855   0.050   3.007 -0.7795  1.3678 -0.4682
  177POPC   H2Y23628   4.925   0.179   3.103 -0.2307  0.9257 -2.9638
  177POPC   C2323629   5.387   7.792   3.018  0.4733  0.0333 -0.4981
  177POPC   H3R23630   5.372   7.902   3.018 -1.4084 -0.2197 -0.6803
  177POPC   H3S23631   5.489   7.779   2.976  0.3456  0.1523 -0.8416
  177POPC   C2423632   5.385   7.751   3.166  0.7372  0.0636 -0.4858
  177POPC   H4R23633   5.295   7.780   3.224  1.3477  0.4792  0.2704
  177POPC   H4S23634   5.464   7.817   3.209  0.1181  0.1580  0.5283
  177POPC   C2523635   5.423   7.605   3.193  0.8841  0.1677 -0.1300
  177POPC   H5R23636   5.510   7.595   3.125 -0.5957 -0.8149 -1.9140
  177POPC   H5S23637   5.347   7.530   3.163  1.3427 -0.3998  0.1240
  177POPC   C2623638   5.464   7.582   3.339  0.3073  0.7030  0.1222
  177POPC   H6R23639   5.548   7.649   3.368  0.1636  1.4033 -1.0185
  177POPC   H6S23640   5.517   7.485   3.352 -1.3526 -0.2087  0.1043
  177POPC   C2723641   5.359   7.599   3.448  0.7363  1.1610  0.4676
  177POPC   H7R23642   5.274   7.535   3.415  0.9483  1.4271 -0.6019
  177POPC   H7S23643   5.333   7.706   3.431  2.4068  1.3482 -0.9667
  177POPC   C2823644   5.397   7.568   3.593 -0.2748  0.5152  0.5965
  177POPC   H8R23645   5.355   7.634   3.672 -0.6056  1.5008 -0.3987
  177POPC   H8S23646   5.508   7.570   3.593 -0.2241  0.3365  3.6588
  177POPC   C2923647   5.355   7.429   3.634 -0.6209  0.4103 -0.1024
  177POPC   H9123648   5.256   7.414   3.590 -0.1979  1.8418 -1.5802
  177POPC  C21023649   5.410   7.338   3.715  0.2107  0.2377 -0.8549
  177POPC  H10123650   5.358   7.243   3.735 -0.6705  0.7634 -0.6511
  177POPC  C21123651   5.546   7.351   3.779 -0.4122  0.2291  0.4814
  177POPC  H11R23652   5.621   7.401   3.715  1.5375 -0.9078  1.8217
  177POPC  H11S23653   5.577   7.244   3.780 -1.6120 -0.1444 -0.4538
  177POPC  C21223654   5.562   7.416   3.917  0.1697 -0.0520  0.5481
  177POPC  H12R23655   5.487   7.360   3.976  0.0645  0.0996  0.5582
  177POPC  H12S23656   5.536   7.522   3.895 -0.0733  0.1935  1.9739
  177POPC  C21323657   5.705   7.404   3.969  0.3205  0.6018  0.3012
  177POPC  H13R23658   5.774   7.452   3.898  1.1970  0.3311  0.9642
  177POPC  H13S23659   5.725   7.295   3.972 -0.7013  0.3790 -0.3994
  177POPC  C21423660   5.712   7.472   4.106 -0.3982  0.2254  0.5314
  177POPC  H14R23661   5.649   7.419   4.181 -2.2956  0.4170 -0.9014
  177POPC  H14S23662   5.689   7.580   4.097 -1.5740 -0.0334  0.3708
  177POPC  C21523663   5.854   7.450   4.159 -0.2335  0.3591  0.1520
  177POPC  H15R23664   5.930   7.516   4.113 -1.0949  0.6427 -0.8584
  177POPC  H15S23665   5.896   7.348   4.150  1.5034  1.2428 -2.1132
  177POPC  C21623666   5.864   7.477   4.310 -0.0157  0.7580  0.0671
  177POPC  H16R23667   5.798   7.400   4.354  2.7558 -1.0705  1.1519
  177POPC  H16S23668   5.821   7.576   4.333 -0.7350  0.5593 -0.4194
  177POPC  C21723669   6.004   7.457   4.367 -0.1412 -0.4416 -0.0317
  177POPC  H17R23670   6.062   7.551   4.356 -0.8987 -0.2962 -3.1521
  177POPC  H17S23671   6.058   7.379   4.309 -1.6777 -1.4704 -0.1094
  177POPC  C21823672   6.003   7.413   4.514 -0.0937  0.3781  0.2175
  177POPC  H18R23673   5.935   7.327   4.530  0.2953  0.2829  1.4141
  177POPC  H18S23674   5.963   7.502   4.567  0.7170  1.1993 -0.5276
  177POPC  H18T23675   6.102   7.382   4.555 -1.2777 -1.1154  1.9882
  177POPC   C3323676   4.979   7.958   3.183  0.1359 -0.1043 -0.6319
  177POPC   H3X23677   5.044   0.054   3.251 -0.9895 -0.6661  0.9887
  177POPC   H3Y23678   5.037   7.864   3.172  0.7706  0.2567 -0.3780
  177POPC   C3423679   4.845   7.937   3.253  0.2299 -0.2358 -0.4914
  177POPC   H4X23680   4.780   7.869   3.193 -2.5528  1.6088  0.3401
  177POPC   H4Y23681   4.792   0.072   3.262 -1.0680 -1.0404  1.3399
  177POPC   C3523682   4.850   7.884   3.396  0.2305  0.5587 -0.1963
  177POPC   H5X23683   4.752   7.887   3.449  0.2894 -1.9899  0.1349
  177POPC   H5Y23684   4.916   7.951   3.455  2.0668 -1.1360 -0.2550
  177POPC   C3623685   4.898   7.739   3.404  0.1568  0.5312 -0.2472
  177POPC   H6X23686   4.985   7.726   3.335  0.7834  3.4816 -0.0526
  177POPC   H6Y23687   4.814   7.671   3.380 -0.2816  1.0769 -0.2645
  177POPC   C3723688   4.947   7.713   3.546  0.3916 -0.0388 -0.4292
  177POPC   H7X23689   4.875   7.750   3.622 -0.0055 -0.2189 -0.7154
  177POPC   H7Y23690   5.045   7.764   3.553  0.0684  0.5480 -0.1275
  177POPC   C3823691   4.972   7.563   3.566  0.6673  0.0745  0.0925
  177POPC   H8X23692   5.057   7.533   3.501 -0.5458 -3.1623 -0.0821
  177POPC   H8Y23693   4.883   7.504   3.535  2.5303 -2.2407 -0.9303
  177POPC   C3923694   5.008   7.518   3.708  0.5076  0.5264  0.2780
  177POPC   H9X23695   5.090   7.583   3.745  2.3824 -0.6727 -1.6429
  177POPC   H9Y23696   5.047   7.414   3.705 -1.5660 -0.2562 -2.1360
  177POPC  C31023697   4.894   7.532   3.809  0.0167 -0.1319 -0.1767
  177POPC  H10X23698   4.843   7.631   3.812  3.1095  1.5894 -1.5784
  177POPC  H10Y23699   4.936   7.514   3.911 -0.3924 -0.2626 -0.0325
  177POPC  C31123700   4.782   7.430   3.787 -0.4210  0.2086  0.4548
  177POPC  H11X23701   4.819   7.335   3.742  0.5352  0.5460  0.5081
  177POPC  H11Y23702   4.706   7.475   3.720 -0.0293 -2.5248 -1.9361
  177POPC  C31223703   4.723   7.391   3.923  0.0604  0.1394  0.6467
  177POPC  H12X23704   4.695   7.487   3.971 -3.3772 -0.9996  1.0407
  177POPC  H12Y23705   4.807   7.360   3.989 -0.3245  2.1740  2.1351
  177POPC  C31323706   4.610   7.289   3.908  0.1802 -0.0089  0.7500
  177POPC  H13X23707   4.655   7.203   3.854 -1.7871 -2.4824  2.9153
  177POPC  H13Y23708   4.530   7.338   3.849  1.7386 -0.4059 -1.7754
  177POPC  C31423709   4.558   7.239   4.042  0.1403 -0.2363  0.6494
  177POPC  H14X23710   4.553   7.326   4.112  0.9295  0.3444 -0.0167
  177POPC  H14Y23711   4.632   7.165   4.079  1.3095  0.1250 -0.9240
  177POPC  C31523712   4.421   7.171   4.040  0.0531 -0.0355 -0.0233
  177POPC  H15X23713   4.345   7.246   4.011 -0.9997 -0.4879  1.4937
  177POPC  H15Y23714   4.398   7.131   4.141  1.2866 -0.2469  0.1777
  177POPC  C31623715   4.413   7.057   3.938  0.3512  0.0241 -0.1130
  177POPC  H16X23716   4.312   7.011   3.938 -0.1025  0.8692 -3.8395
  177POPC  H16Y23717   4.493   6.981   3.953 -0.8865 -1.2393  0.1354
  177POPC  H16Z23718   4.414   7.106   3.839  0.3187 -0.0107 -0.1299
  178POPC     N23719   2.372   2.773   2.279  0.1325 -0.3347  0.0980
  178POPC   C1223720   2.473   2.829   2.377  0.0750 -0.4592  0.2299
  178POPC  H12A23724   2.442   2.808   2.478 -1.4657  4.1619  0.8262
  178POPC  H12B23725   2.467   2.937   2.373 -0.2855 -0.5176 -0.9564
  178POPC   C1323721   2.408   2.806   2.137 -0.3122 -0.2135  0.0142
  178POPC  H13A23726   2.401   2.913   2.128 -1.9455 -0.2072  1.2719
  178POPC  H13B23727   2.507   2.777   2.103 -0.3120 -1.9312  1.4151
  178POPC  H13C23728   2.335   2.757   2.074 -0.5045 -1.3254  1.0812
  178POPC   C1423722   2.347   2.626   2.301 -0.3464 -0.2433  0.1517
  178POPC  H14A23729   2.410   2.558   2.246  0.6480  1.0573 -0.3386
  178POPC  H14B23730   2.347   2.606   2.407 -0.6197 -1.3707 -0.0500
  178POPC  H14C23731   2.246   2.605   2.269 -0.7391 -0.2432  1.3565
  178POPC   C1523723   2.240   2.843   2.292  0.1892 -0.2302  0.1106
  178POPC  H15A23732   2.194   2.820   2.387  1.6966 -1.0699  0.6374
  178POPC  H15B23733   2.163   2.816   2.221 -0.6409 -1.4638  1.4588
  178POPC  H15C23734   2.258   2.947   2.269  1.8205 -0.3470  0.7908
  178POPC   C1123735   2.616   2.779   2.353  0.2323 -0.1996  0.6175
  178POPC  H11A23736   2.679   2.835   2.425 -2.2741  3.0368  0.4298
  178POPC  H11B23737   2.658   2.797   2.252  1.0022 -1.8979  0.6300
  178POPC     P23738   2.767   2.572   2.394  0.5179 -0.3416  0.1708
  178POPC   O1323739   2.871   2.676   2.390  0.1778 -0.0225 -0.4302
  178POPC   O1423740   2.758   2.484   2.276  0.3089  0.2413 -0.2512
  178POPC   O1223741   2.624   2.644   2.399  0.5332 -0.3149  0.2305
  178POPC   O1123742   2.768   2.490   2.532 -0.4187 -0.5347  0.0696
  178POPC    C123743   2.708   2.548   2.648  0.5433 -0.6582  0.6370
  178POPC    HA23744   2.695   2.468   2.723  0.1520 -1.6167 -0.4406
  178POPC    HB23745   2.609   2.596   2.628  0.3082  0.1024  3.4028
  178POPC    C223746   2.801   2.644   2.724  0.1219  0.3038 -0.0548
  178POPC    HS23747   2.823   2.735   2.664 -0.0600 -0.4040 -1.2085
  178POPC   O2123748   2.913   2.561   2.756 -0.1002  0.0291  0.0107
  178POPC   C2123749   3.031   2.616   2.727 -0.0205 -0.0163  0.2455
  178POPC   O2223750   3.041   2.713   2.653 -0.4149  0.2494  0.5351
  178POPC   C2223751   3.141   2.559   2.815 -0.0264 -0.2337  0.1119
  178POPC   H2R23752   3.238   2.606   2.791 -1.1714  1.7858 -0.7101
  178POPC   H2S23753   3.163   2.451   2.799 -0.1508 -0.4778  1.4993
  178POPC    C323754   2.737   2.698   2.853 -0.1645 -0.1346 -0.0119
  178POPC    HX23755   2.702   2.606   2.905 -0.0677 -0.5730 -0.7187
  178POPC    HY23756   2.642   2.751   2.833 -2.1369 -2.2378  3.3306
  178POPC   O3123757   2.832   2.774   2.929  0.0778 -0.3580 -0.0921
  178POPC   C3123758   2.825   2.904   2.901  0.6193 -0.3025  0.0248
  178POPC   O3223759   2.769   2.949   2.802  0.0698  0.3330  0.6150
  178POPC   C3223760   2.916   2.983   2.995  0.0080  0.7320 -0.2427
  178POPC   H2X23761   2.936   2.918   3.083  2.3884  0.9417 -0.5858
  178POPC   H2Y23762   2.853   3.069   3.026 -2.6216 -1.2015 -0.0620
  178POPC   C2323763   3.106   2.572   2.964 -0.0854 -0.0552  0.0827
  178POPC   H3R23764   3.027   2.503   3.002 -0.5753 -0.9335 -2.4063
  178POPC   H3S23765   3.085   2.678   2.991 -2.5854 -0.7770  1.1881
  178POPC   C2423766   3.224   2.519   3.045  0.4965  0.1531 -0.6268
  178POPC   H4R23767   3.304   2.586   3.006  0.6839 -1.5474 -3.2538
  178POPC   H4S23768   3.260   2.418   3.018  0.5008 -0.1902  0.6454
  178POPC   C2523769   3.204   2.532   3.196  0.7442 -0.0299 -0.5793
  178POPC   H5R23770   3.110   2.486   3.232 -0.3188  0.1957 -3.0160
  178POPC   H5S23771   3.213   2.635   3.236 -0.2990 -0.4154  0.7123
  178POPC   C2623772   3.324   2.462   3.261  0.0719 -0.4117  0.2529
  178POPC   H6R23773   3.403   2.517   3.206 -0.8846 -0.7296 -1.4712
  178POPC   H6S23774   3.321   2.359   3.219  1.5012 -0.4387  0.2128
  178POPC   C2723775   3.339   2.451   3.413  0.1568  0.3727  0.3041
  178POPC   H7R23776   3.420   2.376   3.423  0.4029  0.3000 -2.0279
  178POPC   H7S23777   3.247   2.414   3.463  0.5487 -1.0197  0.0275
  178POPC   C2823778   3.385   2.574   3.492  0.7061  0.4336 -0.1067
  178POPC   H8R23779   3.317   2.657   3.462  0.0111 -0.8449 -2.2201
  178POPC   H8S23780   3.485   2.585   3.446  0.2757 -2.0497 -1.7453
  178POPC   C2923781   3.389   2.548   3.640  0.5553 -0.0269 -0.1815
  178POPC   H9123782   3.292   2.512   3.678  0.3628  0.1746 -0.4718
  178POPC  C21023783   3.491   2.557   3.726 -0.0799 -0.3831  0.6201
  178POPC  H10123784   3.482   2.508   3.823  0.0349 -0.9575  0.3420
  178POPC  C21123785   3.626   2.608   3.683 -0.2172 -0.0524  0.5768
  178POPC  H11R23786   3.625   2.667   3.589  0.3906  0.5559  0.9461
  178POPC  H11S23787   3.691   2.522   3.657  1.1739  0.8094  1.1209
  178POPC  C21223788   3.700   2.702   3.779 -0.0668  0.2985  0.1144
  178POPC  H12R23789   3.726   2.641   3.868  0.7607  0.5945  0.0839
  178POPC  H12S23790   3.633   2.787   3.805  0.4654  0.9015 -0.4523
  178POPC  C21323791   3.826   2.759   3.714  0.3749 -0.0823  0.6356
  178POPC  H13R23792   3.808   2.812   3.617  0.0095 -4.0386 -1.5604
  178POPC  H13S23793   3.888   2.672   3.683  1.9919  1.1324  0.3792
  178POPC  C21423794   3.913   2.846   3.805  0.4219 -0.4214  0.9176
  178POPC  H14R23795   3.993   2.885   3.738 -0.1967 -0.1322  0.3380
  178POPC  H14S23796   3.939   2.777   3.887  0.5518 -0.5123  0.7998
  178POPC  C21523797   3.852   2.977   3.854  0.3646 -0.0378 -0.1467
  178POPC  H15R23798   3.776   2.953   3.932 -0.0424  0.9940 -0.2188
  178POPC  H15S23799   3.817   3.025   3.760  0.0826  0.4676  0.2062
  178POPC  C21623800   3.951   3.074   3.919 -0.3612  0.1717  0.6753
  178POPC  H16R23801   4.044   3.088   3.859 -0.2313 -2.0437  0.3052
  178POPC  H16S23802   3.975   3.044   4.023 -1.2399  2.4304  1.5475
  178POPC  C21723803   3.895   3.215   3.936 -0.2046  0.2720  0.3700
  178POPC  H17R23804   3.784   3.209   3.932 -0.1913 -0.1425  0.6553
  178POPC  H17S23805   3.923   3.269   3.843 -1.7420 -0.4529 -0.5362
  178POPC  C21823806   3.950   3.270   4.068  0.0547  0.3059  0.2482
  178POPC  H18R23807   3.916   3.206   4.152  0.3618 -0.2321 -0.0281
  178POPC  H18S23808   3.913   3.372   4.087 -0.8027  0.0569 -0.0660
  178POPC  H18T23809   4.061   3.279   4.061 -0.0693  2.3631  0.6571
  178POPC   C3323810   3.040   3.026   2.916  0.1722  0.3360 -0.2052
  178POPC   H3X23811   3.009   3.110   2.850 -2.5815 -0.4404  0.0113
  178POPC   H3Y23812   3.079   2.950   2.846 -0.8178  1.0323 -1.5426
  178POPC   C3423813   3.163   3.064   2.999  0.1206  0.1604 -0.0478
  178POPC   H4X23814   3.138   3.136   3.079  1.7109  1.3157 -0.5632
  178POPC   H4Y23815   3.234   3.107   2.925 -0.7233 -1.1228 -1.6453
  178POPC   C3523816   3.238   2.946   3.061  0.2141  0.5105  0.5087
  178POPC   H5X23817   3.292   2.895   2.978 -1.1508  2.6023 -1.7573
  178POPC   H5Y23818   3.171   2.876   3.115  0.1173  0.0819 -0.1598
  178POPC   C3623819   3.352   2.982   3.156  0.6041  0.1576  0.1761
  178POPC   H6X23820   3.311   3.039   3.242 -1.8220  0.9995 -1.4995
  178POPC   H6Y23821   3.425   3.043   3.098  0.5856  1.4284  1.4578
  178POPC   C3723822   3.421   2.861   3.219 -0.5006 -0.1364  0.8217
  178POPC   H7X23823   3.454   2.799   3.133  2.6289  1.5742  0.7271
  178POPC   H7Y23824   3.351   2.798   3.279 -1.7405  0.2318 -0.2052
  178POPC   C3823825   3.560   2.887   3.275 -0.2032  0.5730 -0.2356
  178POPC   H8X23826   3.622   2.938   3.198  1.0072  2.1441  1.6949
  178POPC   H8Y23827   3.600   2.790   3.312  0.2673  0.6632 -0.4914
  178POPC   C3923828   3.569   2.980   3.397  0.4851 -0.0837  0.2166
  178POPC   H9X23829   3.565   3.084   3.360 -2.5326 -0.8756 -1.8661
  178POPC   H9Y23830   3.671   2.959   3.436  1.3327  0.5850 -1.5419
  178POPC  C31023831   3.471   2.949   3.510  0.1768 -0.2133 -0.0842
  178POPC  H10X23832   3.476   2.841   3.533  1.5196 -0.2859 -0.6888
  178POPC  H10Y23833   3.363   2.966   3.491 -0.2122 -1.8302  0.5985
  178POPC  C31123834   3.496   3.029   3.638 -0.5158  0.3596 -0.3005
  178POPC  H11X23835   3.500   3.131   3.596 -0.0371 -0.0191 -1.1778
  178POPC  H11Y23836   3.590   3.000   3.690 -1.6742 -0.1246  1.6035
  178POPC  C31223837   3.386   3.009   3.742 -0.2195  0.7269  0.0860
  178POPC  H12X23838   3.393   2.900   3.764  0.2316  0.9081  0.8474
  178POPC  H12Y23839   3.285   3.052   3.724 -0.9086 -0.6210  0.6041
  178POPC  C31323840   3.422   3.076   3.875 -0.0182  0.0002  0.4000
  178POPC  H13X23841   3.447   3.183   3.858 -1.7292  0.7210  2.1986
  178POPC  H13Y23842   3.513   3.032   3.921  0.1139  0.5313  0.6434
  178POPC  C31423843   3.301   3.091   3.967 -0.2089 -0.7253  0.2735
  178POPC  H14X23844   3.236   3.001   3.970 -0.7535 -0.3024  1.7755
  178POPC  H14Y23845   3.235   3.175   3.936  0.8991  0.1981  0.3728
  178POPC  C31523846   3.348   3.112   4.111  0.3719 -0.6841  0.0784
  178POPC  H15X23847   3.400   3.020   4.148  0.3579 -0.9293 -0.5030
  178POPC  H15Y23848   3.267   3.130   4.186  2.0931  0.6905  1.6488
  178POPC  C31623849   3.435   3.235   4.136 -0.2980 -0.2756  0.4293
  178POPC  H16X23850   3.519   3.237   4.063 -0.3355 -1.1611  0.3486
  178POPC  H16Y23851   3.475   3.268   4.234 -0.3732 -2.1473  1.1175
  178POPC  H16Z23852   3.368   3.320   4.111  0.5136 -0.0867 -1.2284
  179POPC     N23853   3.351   2.232   1.906 -0.1439 -0.2398 -0.1499
  179POPC   C1223854   3.362   2.263   2.054 -0.5410 -0.0198 -0.1683
  179POPC  H12A23858   3.264   2.296   2.085 -0.1526 -1.0776  2.2470
  179POPC  H12B23859   3.427   2.350   2.055 -1.4429  0.7014  4.0396
  179POPC   C1323855   3.287   2.345   1.829  0.3017 -0.2533 -0.5429
  179POPC  H13A23860   3.182   2.354   1.853  0.6303 -0.8493  1.2322
  179POPC  H13B23861   3.342   2.436   1.847  0.5348 -0.7668  1.4445
  179POPC  H13C23862   3.292   2.319   1.724 -0.7189 -0.1670 -0.6198
  179POPC   C1423856   3.484   2.201   1.841 -0.0432  0.6550 -0.3774
  179POPC  H14A23863   3.471   2.165   1.740  2.8007  0.1561 -0.6059
  179POPC  H14B23864   3.540   2.293   1.835  0.0599  0.6686  0.7176
  179POPC  H14C23865   3.542   2.124   1.890  1.2044  1.9778  0.2527
  179POPC   C1523857   3.259   2.115   1.878 -0.4373  0.0646 -0.4593
  179POPC  H15A23866   3.169   2.120   1.938 -0.9354  0.5082 -1.2367
  179POPC  H15B23867   3.313   2.023   1.894  0.2310  0.4046 -0.7097
  179POPC  H15C23868   3.215   2.131   1.781  2.4790 -0.1081 -1.8580
  179POPC   C1123869   3.414   2.152   2.144  0.1201  0.2818 -0.1797
  179POPC  H11A23870   3.366   2.055   2.121  0.7119  0.0254 -0.3449
  179POPC  H11B23871   3.385   2.174   2.249 -0.2982 -0.5241 -0.1251
  179POPC     P23872   3.637   2.031   2.210  0.2098  0.0006 -0.0151
  179POPC   O1323873   3.781   2.064   2.198  0.0605  0.7239  0.1779
  179POPC   O1423874   3.579   1.896   2.186 -0.5889  0.3428 -0.0148
  179POPC   O1223875   3.556   2.141   2.128  0.1595  0.1477  0.2311
  179POPC   O1123876   3.584   2.064   2.357  0.0360  0.1003 -0.1011
  179POPC    C123877   3.623   2.189   2.415 -0.2479  0.0601  0.1795
  179POPC    HA23878   3.539   2.220   2.480  0.8702  1.3889  1.0075
  179POPC    HB23879   3.636   2.276   2.346 -2.0180  0.8752  0.8487
  179POPC    C223880   3.740   2.166   2.512  0.1138 -0.5105 -0.3882
  179POPC    HS23881   3.823   2.125   2.450 -0.7826 -1.3380 -1.0737
  179POPC   O2123882   3.700   2.059   2.598 -0.3843  0.3766  0.4865
  179POPC   C2123883   3.803   2.018   2.672 -0.0627  0.2834 -0.0150
  179POPC   O2223884   3.920   2.046   2.649  0.0411  0.3307  0.5702
  179POPC   C2223885   3.760   1.929   2.787  0.0491  0.3424  0.0722
  179POPC   H2R23886   3.774   1.824   2.754 -2.8097  0.3765 -1.3977
  179POPC   H2S23887   3.650   1.942   2.787  0.0431  0.6428 -2.4052
  179POPC    C323888   3.772   2.296   2.587  0.0989 -0.6083 -0.2116
  179POPC    HX23889   3.765   2.384   2.518  0.2774  0.0710  0.6272
  179POPC    HY23890   3.875   2.285   2.627  0.0736 -1.1972 -0.3113
  179POPC   O3123891   3.675   2.305   2.692  0.1203  0.3590 -0.2643
  179POPC   C3123892   3.725   2.385   2.786 -0.4008  0.6743 -0.2537
  179POPC   O3223893   3.815   2.466   2.767 -0.2205  0.5900  0.2238
  179POPC   C3223894   3.649   2.367   2.916  0.8884  0.1511  0.4377
  179POPC   H2X23895   3.603   2.266   2.923  1.6916 -0.1405  1.8095
  179POPC   H2Y23896   3.581   2.454   2.926  1.4420  0.8404 -1.7114
  179POPC   C2323897   3.821   1.954   2.925 -0.2102  0.5389  0.1506
  179POPC   H3R23898   3.773   2.047   2.963 -0.3670  1.1436 -1.4704
  179POPC   H3S23899   3.930   1.973   2.920 -0.1030 -0.4167 -1.3601
  179POPC   C2423900   3.790   1.839   3.021  0.2283 -0.1897 -0.5722
  179POPC   H4R23901   3.820   1.742   2.976  1.2959 -0.5818  0.9385
  179POPC   H4S23902   3.681   1.831   3.038 -0.0335  1.9257 -1.0383
  179POPC   C2523903   3.848   1.873   3.159  0.1110 -0.2104 -0.5180
  179POPC   H5R23904   3.786   1.959   3.192  1.6504  0.8549 -0.3858
  179POPC   H5S23905   3.956   1.893   3.143  0.2606  0.4028  1.2499
  179POPC   C2623906   3.845   1.757   3.259  0.3464  0.0673 -0.1907
  179POPC   H6R23907   3.889   1.670   3.206  0.3621 -1.3027  2.0188
  179POPC   H6S23908   3.746   1.728   3.300 -1.2201 -0.3659 -4.0583
  179POPC   C2723909   3.948   1.767   3.372  0.5070 -0.6869 -0.2659
  179POPC   H7R23910   3.927   1.863   3.424 -0.2690  0.3431 -2.4191
  179POPC   H7S23911   4.046   1.774   3.320 -0.0441  0.4540 -1.1839
  179POPC   C2823912   3.950   1.643   3.461  0.2193 -0.0722  0.6047
  179POPC   H8R23913   4.016   1.650   3.550  1.6878 -0.0988 -0.4689
  179POPC   H8S23914   3.988   1.561   3.396 -0.6972  0.5576 -0.7333
  179POPC   C2923915   3.811   1.612   3.509  0.0231  0.3885  0.3340
  179POPC   H9123916   3.757   1.698   3.552  0.3648  0.3899  0.7714
  179POPC  C21023917   3.745   1.496   3.501  0.0562  0.3814  0.1683
  179POPC  H10123918   3.788   1.415   3.440 -0.7480 -1.5840  2.1586
  179POPC  C21123919   3.605   1.472   3.549  0.0503 -0.3880 -0.2215
  179POPC  H11R23920   3.561   1.407   3.470 -0.0408 -0.3799 -0.1775
  179POPC  H11S23921   3.545   1.566   3.557  0.8087  0.3371 -2.6222
  179POPC  C21223922   3.609   1.383   3.672 -0.2081 -0.3504 -0.1837
  179POPC  H12R23923   3.670   1.436   3.748  0.3237  0.0602 -0.8965
  179POPC  H12S23924   3.663   1.290   3.642  0.0856 -0.6312  1.1586
  179POPC  C21323925   3.470   1.354   3.730 -0.1070 -0.3699  0.0505
  179POPC  H13R23926   3.406   1.305   3.654  1.0421 -0.2785 -0.9978
  179POPC  H13S23927   3.420   1.451   3.748 -0.6539 -0.9610  1.8316
  179POPC  C21423928   3.473   1.262   3.852  0.1057 -0.1772  0.1905
  179POPC  H14R23929   3.478   1.160   3.808 -0.6456  0.2679 -0.9498
  179POPC  H14S23930   3.373   1.290   3.892 -0.7685  0.3253 -2.2663
  179POPC  C21523931   3.575   1.296   3.961 -0.0811 -0.0452  0.3242
  179POPC  H15R23932   3.564   1.393   4.016 -1.1627 -1.2324  2.2675
  179POPC  H15S23933   3.674   1.286   3.911  0.1403 -0.2066  0.7925
  179POPC  C21623934   3.563   1.186   4.067 -0.3151 -0.2245  0.1090
  179POPC  H16R23935   3.601   1.088   4.033 -0.9853 -0.5713  0.3493
  179POPC  H16S23936   3.629   1.215   4.151 -1.3899  0.2173  0.8149
  179POPC  C21723937   3.433   1.169   4.145 -0.5379  0.1967 -0.1644
  179POPC  H17R23938   3.455   1.106   4.234  2.1166 -0.5876 -1.3371
  179POPC  H17S23939   3.367   1.114   4.074  0.8742  0.9002 -2.0635
  179POPC  C21823940   3.365   1.298   4.191  0.2195  0.2847  0.7115
  179POPC  H18R23941   3.437   1.380   4.212 -1.6690  1.5353  2.5365
  179POPC  H18S23942   3.306   1.336   4.105  0.9722  1.6802  0.7915
  179POPC  H18T23943   3.314   1.289   4.289 -1.3997  0.1621 -0.1320
  179POPC   C3323944   3.751   2.374   3.030  0.5727 -0.1239  0.7391
  179POPC   H3X23945   3.808   2.467   3.009 -0.4226  0.5432  0.9856
  179POPC   H3Y23946   3.823   2.289   3.026  1.0023  0.2647  0.1666
  179POPC   C3423947   3.691   2.373   3.171  0.0901  0.8942  0.5423
  179POPC   H4X23948   3.629   2.283   3.189 -1.0366  1.4792 -0.3021
  179POPC   H4Y23949   3.611   2.450   3.165 -1.8900 -1.1894 -0.3821
  179POPC   C3523950   3.794   2.406   3.279  0.3073  0.3357  0.5059
  179POPC   H5X23951   3.885   2.343   3.268 -0.5091 -0.4574 -1.9925
  179POPC   H5Y23952   3.746   2.381   3.376 -0.0651  0.5770  0.3840
  179POPC   C3623953   3.831   2.554   3.276 -0.1093  0.4325  0.0716
  179POPC   H6X23954   3.741   2.619   3.284  1.3539  2.3432  1.8480
  179POPC   H6Y23955   3.864   2.586   3.175 -0.4913  2.5732  0.5845
  179POPC   C3723956   3.925   2.599   3.388 -0.0410  0.7614 -0.1139
  179POPC   H7X23957   3.890   2.545   3.479  0.3569 -0.5424 -0.7232
  179POPC   H7Y23958   3.937   2.704   3.422 -0.1516  0.9352 -0.6108
  179POPC   C3823959   4.061   2.534   3.359 -0.3144  0.0699  0.1248
  179POPC   H8X23960   4.084   2.562   3.254  0.0893 -0.9209 -0.0545
  179POPC   H8Y23961   4.061   2.425   3.380 -1.4344 -0.0809 -0.6346
  179POPC   C3923962   4.174   2.589   3.447  0.2313  0.1820 -0.6452
  179POPC   H9X23963   4.176   2.698   3.424 -1.3459 -0.0525 -1.9812
  179POPC   H9Y23964   4.267   2.540   3.413  0.3616  0.9801 -1.4710
  179POPC  C31023965   4.164   2.576   3.599  0.3417  0.2429 -0.6329
  179POPC  H10X23966   4.146   2.470   3.627 -1.5507  0.5228 -0.7578
  179POPC  H10Y23967   4.072   2.621   3.641 -1.1211 -2.6169 -0.6137
  179POPC  C31123968   4.283   2.625   3.682 -0.2038 -0.1714  0.4017
  179POPC  H11X23969   4.307   2.732   3.663  2.0492 -0.1578  2.9618
  179POPC  H11Y23970   4.373   2.565   3.660  0.1413  0.9447 -1.4175
  179POPC  C31223971   4.271   2.622   3.834 -0.5211  0.2385  0.3877
  179POPC  H12X23972   4.167   2.644   3.866 -0.2344  1.0660  0.7512
  179POPC  H12Y23973   4.329   2.708   3.874 -1.9997  1.1082  0.7085
  179POPC  C31323974   4.318   2.490   3.896 -0.6040  0.0711  0.0923
  179POPC  H13X23975   4.417   2.473   3.847 -0.7309  1.0166 -0.4984
  179POPC  H13Y23976   4.249   2.411   3.859  0.0591 -0.4655 -0.0290
  179POPC  C31423977   4.307   2.491   4.048 -0.1888  0.5704  0.1212
  179POPC  H14X23978   4.317   2.383   4.072  0.5070  0.5997 -0.0296
  179POPC  H14Y23979   4.210   2.534   4.082  0.4745  0.9550  1.5578
  179POPC  C31523980   4.430   2.556   4.112  0.2332 -0.3458  0.2494
  179POPC  H15X23981   4.427   2.661   4.075  1.3149 -0.1627  0.6802
  179POPC  H15Y23982   4.529   2.511   4.093  0.5844  0.2041  0.7671
  179POPC  C31623983   4.409   2.570   4.263 -0.2167 -0.1836  0.1755
  179POPC  H16X23984   4.399   2.471   4.313  2.3885  0.4940  2.1729
  179POPC  H16Y23985   4.319   2.632   4.282 -0.1521  0.2127 -0.7747
  179POPC  H16Z23986   4.498   2.620   4.307 -0.1537 -1.6118  1.7162
  180POPC     N23987   6.794   0.734   2.047 -0.4197 -0.0160  0.3223
  180POPC   C1223988   6.904   0.827   2.094 -0.3873 -0.3430  0.8939
  180POPC  H12A23992   6.883   0.885   2.183  2.4014  0.9479  0.7695
  180POPC  H12B23993   6.929   0.896   2.015  1.4073  1.4180  2.9226
  180POPC   C1323989   6.739   0.639   2.150 -0.2108 -0.7418 -0.2338
  180POPC  H13A23994   6.650   0.600   2.103 -1.6006  2.0016  0.0256
  180POPC  H13B23995   6.807   0.564   2.187 -1.8800 -1.1003  2.1764
  180POPC  H13C23996   6.713   0.699   2.236  1.8264 -1.3629  0.8449
  180POPC   C1423990   6.684   0.823   1.995 -0.1492  0.1675  0.0594
  180POPC  H14A23997   6.647   0.865   2.087 -1.1713 -1.6775  0.5219
  180POPC  H14B23998   6.730   0.889   1.922 -1.0646 -0.2792 -0.9439
  180POPC  H14C23999   6.613   0.759   1.944  2.0625 -2.5066  0.1835
  180POPC   C1523991   6.842   0.653   1.929 -0.9858 -0.1033  0.1505
  180POPC  H15A24000   6.759   0.609   1.877 -0.1905 -1.5827  0.1052
  180POPC  H15B24001   6.901   0.568   1.960 -1.4182  0.3334  2.2507
  180POPC  H15C24002   6.899   0.714   1.861 -0.2057 -0.8557  0.1075
  180POPC   C1124003   7.036   0.756   2.122  0.2098  0.3917 -0.0638
  180POPC  H11A24004   7.109   0.833   2.155 -0.7311  1.0233  0.5688
  180POPC  H11B24005   7.067   0.717   2.023  1.4857  1.2696 -0.0307
  180POPC     P24006   7.168   0.583   2.250 -0.1717  0.3896  0.0356
  180POPC   O1324007   7.260   0.680   2.313  0.6813 -0.3487 -0.0723
  180POPC   O1424008   7.215   0.510   2.130 -0.5272  0.2787 -0.0378
  180POPC   O1224009   7.027   0.651   2.218 -0.3083 -0.3154 -0.8802
  180POPC   O1124010   7.131   0.473   2.361 -0.0140  0.2953 -0.0045
  180POPC    C124011   7.057   0.362   2.311 -0.1110  0.2802  0.1707
  180POPC    HA24012   7.116   0.278   2.267 -2.3965 -2.4534  2.1064
  180POPC    HB24013   6.977   0.395   2.242  0.7256 -0.3480 -1.1244
  180POPC    C224014   6.985   0.298   2.431  0.0073  0.1175  0.1553
  180POPC    HS24015   6.908   0.227   2.394 -1.5693  1.2296  1.2515
  180POPC   O2124016   6.928   0.404   2.507 -0.0955  0.3761 -0.2818
  180POPC   C2124017   6.819   0.367   2.575  0.0615 -0.1399 -0.3153
  180POPC   O2224018   6.759   0.261   2.565 -0.1694 -0.0910  0.5245
  180POPC   C2224019   6.784   0.477   2.673 -0.0689  0.1295 -0.6630
  180POPC   H2R24020   6.720   0.552   2.623 -0.9145  0.5180  0.9477
  180POPC   H2S24021   6.878   0.529   2.700  0.1028  0.3417 -1.6535
  180POPC    C324022   7.086   0.215   2.512 -0.2166 -0.2284  0.0794
  180POPC    HX24023   7.166   0.286   2.541 -1.3159 -0.0005  2.7698
  180POPC    HY24024   7.126   0.131   2.451 -0.1127  1.0046 -1.5711
  180POPC   O3124025   7.039   0.180   2.643  0.2952  0.3902  0.4307
  180POPC   C3124026   7.106   0.077   2.694 -0.2560 -0.1905 -0.0173
  180POPC   O3224027   7.212   0.039   2.647  0.0418  0.2468  0.2979
  180POPC   C3224028   7.040   0.051   2.829 -0.2502  0.0545  0.0333
  180POPC   H2X24029   6.933   0.025   2.812  0.3423 -1.4869 -1.5462
  180POPC   H2Y24030   7.053   0.147   2.882  0.2396  0.6917 -1.2149
  180POPC   C2324031   6.718   0.432   2.804  0.6168  0.7123 -0.1132
  180POPC   H3R24032   6.625   0.377   2.779  0.5632  0.8773 -0.2773
  180POPC   H3S24033   6.684   0.518   2.866 -0.3069 -0.0137  0.4063
  180POPC   C2424034   6.803   0.345   2.896  0.2104  0.3657 -0.0614
  180POPC   H4R24035   6.909   0.378   2.897  1.1459 -2.4502 -0.8997
  180POPC   H4S24036   6.811   0.243   2.854  2.1319  0.6120 -0.3725
  180POPC   C2524037   6.728   0.335   3.029  0.4353 -0.3612  0.0124
  180POPC   H5R24038   6.628   0.297   3.002  0.7339 -1.3144  0.2294
  180POPC   H5S24039   6.708   0.432   3.080  2.6080  0.3339 -0.3888
  180POPC   C2624040   6.790   0.243   3.135  0.4651 -0.2832  0.0628
  180POPC   H6R24041   6.794   0.143   3.087 -2.7355 -1.0596  1.3360
  180POPC   H6S24042   6.722   0.241   3.222  1.2271 -1.4734  0.6471
  180POPC   C2724043   6.932   0.288   3.170  0.3052 -0.0713  0.4379
  180POPC   H7R24044   7.001   0.270   3.085  0.2682  1.7722 -0.0020
  180POPC   H7S24045   6.959   0.219   3.254 -0.3076  0.1333  0.8083
  180POPC   C2824046   6.959   0.421   3.241  0.2923 -0.0035  0.3162
  180POPC   H8R24047   6.886   0.433   3.325  0.5849 -0.7575  0.6862
  180POPC   H8S24048   6.930   0.491   3.160 -3.0461 -0.1640  1.2735
  180POPC   C2924049   7.097   0.452   3.291  0.3111 -0.4049  0.5201
  180POPC   H9124050   7.173   0.389   3.242 -1.4343 -2.7425  0.6945
  180POPC  C21024051   7.143   0.549   3.371  0.2868  0.1147 -0.0874
  180POPC  H10124052   7.250   0.559   3.394  0.3031 -1.6845  0.7216
  180POPC  C21124053   7.071   0.668   3.427 -0.2610 -0.3829  0.2642
  180POPC  H11R24054   6.969   0.674   3.383  0.1445  3.1764 -0.3400
  180POPC  H11S24055   7.106   0.765   3.386  0.3668 -0.4230  0.7060
  180POPC  C21224056   7.076   0.693   3.578  0.6021 -0.5236  0.2598
  180POPC  H12R24057   7.024   0.789   3.597 -0.5369 -1.4740  2.1192
  180POPC  H12S24058   7.183   0.714   3.598  0.8988  0.0218 -1.7918
  180POPC  C21324059   7.034   0.579   3.671 -0.1494 -0.3859  0.0957
  180POPC  H13R24060   7.117   0.505   3.681  1.4580  0.9546 -2.6159
  180POPC  H13S24061   6.938   0.544   3.629 -0.7755  0.6110  0.6823
  180POPC  C21424062   6.996   0.621   3.813  0.0975 -0.1845  0.1004
  180POPC  H14R24063   6.960   0.531   3.866  0.4752 -0.1672  0.3889
  180POPC  H14S24064   6.923   0.705   3.812  1.0764  0.6860 -0.4701
  180POPC  C21524065   7.115   0.671   3.895 -0.1285 -0.0618  0.3537
  180POPC  H15R24066   7.154   0.772   3.870  0.8693 -0.1520  1.4770
  180POPC  H15S24067   7.189   0.588   3.886 -0.4078 -0.2057 -0.6061
  180POPC  C21624068   7.078   0.677   4.044 -0.4305 -0.6760  0.3048
  180POPC  H16R24069   7.034   0.585   4.088  1.0580 -0.6484  1.9111
  180POPC  H16S24070   7.009   0.761   4.063  2.8644  1.9607  1.1279
  180POPC  C21724071   7.196   0.719   4.132 -0.2886 -0.1140 -0.1532
  180POPC  H17R24072   7.255   0.801   4.085  1.5301 -0.5280  1.3724
  180POPC  H17S24073   7.271   0.637   4.142 -1.6094 -1.3816 -0.5774
  180POPC  C21824074   7.149   0.761   4.271  0.3329  0.5751 -0.1446
  180POPC  H18R24075   7.094   0.857   4.265  0.9504  1.0253  1.2739
  180POPC  H18S24076   7.234   0.793   4.335  1.3399 -0.7688 -0.7769
  180POPC  H18T24077   7.083   0.685   4.318  2.4053 -0.4935  1.1264
  180POPC   C3324078   7.124   7.911   2.905  0.3785  0.2571 -0.3340
  180POPC   H3X24079   7.223   7.954   2.930  1.1330 -1.8984  0.6472
  180POPC   H3Y24080   7.146   7.821   2.843 -2.4922 -0.8404  0.1652
  180POPC   C3424081   7.047   7.868   3.030  0.4354 -0.7402 -0.6332
  180POPC   H4X24082   7.041   7.961   3.090 -2.3892 -1.1133 -0.2449
  180POPC   H4Y24083   7.111   7.789   3.073  0.4130  0.9358  2.6116
  180POPC   C3524084   6.900   7.831   3.008  0.2392 -0.4230  0.1516
  180POPC   H5X24085   6.904   7.762   2.921  1.8163 -1.2155  0.8220
  180POPC   H5Y24086   6.828   7.909   2.978 -0.6475 -1.5066 -0.5774
  180POPC   C3624087   6.840   7.761   3.131 -0.1483  0.0375  0.2266
  180POPC   H6X24088   6.868   7.811   3.226  2.4362 -0.2027 -0.3466
  180POPC   H6Y24089   6.886   7.660   3.142 -0.5079 -0.2116 -0.4981
  180POPC   C3724090   6.691   7.726   3.131 -0.2157  0.3155  0.3668
  180POPC   H7X24091   6.683   7.645   3.055  1.0200 -1.2773  1.8886
  180POPC   H7Y24092   6.635   7.810   3.086  0.3096  0.4718 -0.0008
  180POPC   C3824093   6.638   7.681   3.267 -0.2396 -0.1403  0.2084
  180POPC   H8X24094   6.662   7.771   3.328  1.1465  0.1783 -0.7778
  180POPC   H8Y24095   6.699   7.597   3.307 -1.1764 -1.7094 -1.5371
  180POPC   C3924096   6.492   7.637   3.282 -0.4995  0.6179 -0.0364
  180POPC   H9X24097   6.470   7.576   3.192 -0.1812  0.6197 -0.1167
  180POPC   H9Y24098   6.432   7.730   3.280  0.2223  1.0981  0.3307
  180POPC  C31024099   6.451   7.576   3.416 -0.0800  0.3894 -0.0079
  180POPC  H10X24100   6.487   7.641   3.499 -2.1442  1.5567  0.0050
  180POPC  H10Y24101   6.490   7.473   3.429  1.0190  0.6798 -0.9231
  180POPC  C31124102   6.300   7.549   3.425  0.0278 -0.2371 -0.0327
  180POPC  H11X24103   6.268   7.480   3.344  1.6675 -0.5867 -0.4082
  180POPC  H11Y24104   6.251   7.649   3.414  1.5646  0.7538  1.8426
  180POPC  C31224105   6.249   7.487   3.555  0.0736  0.2275  0.2089
  180POPC  H12X24106   6.288   7.546   3.640  1.9220 -1.3940  0.5169
  180POPC  H12Y24107   6.291   7.386   3.573 -0.7915 -0.5004 -1.6597
  180POPC  C31324108   6.100   7.460   3.580 -0.0291  0.4426 -0.1679
  180POPC  H13X24109   6.068   7.382   3.507 -2.8646 -0.2994  1.8064
  180POPC  H13Y24110   6.038   7.549   3.554 -1.6473 -0.8864 -0.9871
  180POPC  C31424111   6.067   7.433   3.727 -0.0739 -0.0349 -0.2660
  180POPC  H14X24112   5.958   7.418   3.743 -0.0393 -0.6057 -0.5620
  180POPC  H14Y24113   6.087   7.529   3.778 -0.0443 -0.2158  0.0606
  180POPC  C31524114   6.142   7.325   3.805 -0.1943  0.0495 -0.0321
  180POPC  H15X24115   6.245   7.366   3.814 -0.5837  0.9117  0.6054
  180POPC  H15Y24116   6.133   7.235   3.741 -3.3243 -0.2539  0.7536
  180POPC  C31624117   6.086   7.299   3.944 -0.1065  1.3226  0.2520
  180POPC  H16X24118   6.092   7.395   3.999 -1.0457  2.7059 -2.0197
  180POPC  H16Y24119   6.158   7.234   3.999 -0.0481  1.0168 -0.1776
  180POPC  H16Z24120   5.983   7.263   3.923  2.2436 -3.2602 -4.7248
  181POPC     N24121   2.322   7.486   1.903 -0.2599  0.2431 -0.1070
  181POPC   C1224122   2.255   7.426   2.024 -0.6092  0.5076 -0.1691
  181POPC  H12A24126   2.328   7.361   2.070 -0.4702  1.1083  0.4585
  181POPC  H12B24127   2.170   7.365   1.994  1.1417 -2.2453  0.3350
  181POPC   C1324123   2.399   7.379   1.829 -0.8118 -0.0153 -0.3101
  181POPC  H13A24128   2.453   7.434   1.753 -1.4165  2.8678  1.2507
  181POPC  H13B24129   2.467   7.327   1.894 -0.5549  0.2395 -0.3709
  181POPC  H13C24130   2.329   7.306   1.791 -0.1484 -0.6055 -0.4001
  181POPC   C1424124   2.223   7.551   1.809  0.0967  0.1333 -0.5595
  181POPC  H14A24131   2.262   7.577   1.712 -3.0027  4.6246 -0.7343
  181POPC  H14B24132   2.138   7.487   1.789  1.0142 -1.5047  0.6327
  181POPC  H14C24133   2.180   7.639   1.855 -0.3472 -0.1590 -0.4092
  181POPC   C1524125   2.428   7.585   1.946 -0.2185  0.2532 -0.2335
  181POPC  H15A24134   2.399   7.689   1.946  0.0762  0.3960  3.6658
  181POPC  H15B24135   2.516   7.574   1.883 -0.7708 -0.6274 -0.8637
  181POPC  H15C24136   2.465   7.562   2.045 -0.7131 -0.7424 -0.2707
  181POPC   C1124137   2.189   7.519   2.126  0.2776  0.5659  0.3565
  181POPC  H11A24138   2.266   7.581   2.177 -0.7198  2.5723 -0.5190
  181POPC  H11B24139   2.142   7.460   2.208  2.6607 -1.9188  0.0019
  181POPC     P24140   1.994   7.680   2.163 -0.0334  0.0442  0.2112
  181POPC   O1324141   1.875   7.718   2.084  0.4674  0.3815 -0.3827
  181POPC   O1424142   2.067   7.788   2.234 -0.3892  0.4790 -0.0844
  181POPC   O1224143   2.091   7.602   2.063  0.0975  0.2286  0.1920
  181POPC   O1124144   1.954   7.565   2.267  0.2281 -0.3354 -0.1069
  181POPC    C124145   1.841   7.482   2.240 -0.0209  0.0692 -0.3206
  181POPC    HA24146   1.890   7.382   2.248  1.4002  0.6441 -1.5286
  181POPC    HB24147   1.796   7.491   2.139 -1.3460  2.3483  0.4452
  181POPC    C224148   1.738   7.483   2.354  0.0883  0.3637 -0.2227
  181POPC    HS24149   1.638   7.517   2.321 -0.0321 -0.3313 -0.5897
  181POPC   O2124150   1.773   7.551   2.475 -0.1717  0.0581  0.0247
  181POPC   C2124151   1.766   7.683   2.466 -0.0211  0.0638 -0.0002
  181POPC   O2224152   1.728   7.739   2.364 -0.3027 -0.0930  0.0192
  181POPC   C2224153   1.814   7.741   2.598  0.3584 -0.1570 -0.0405
  181POPC   H2R24154   1.885   7.661   2.630  0.5918 -0.4746 -1.3429
  181POPC   H2S24155   1.732   7.746   2.672  0.4987  0.3449  0.0872
  181POPC    C324156   1.709   7.338   2.399 -0.1829  0.2991 -0.5998
  181POPC    HX24157   1.802   7.290   2.434 -0.3613  0.3455 -0.0415
  181POPC    HY24158   1.674   7.278   2.313  0.5990 -0.4476 -0.3962
  181POPC   O3124159   1.610   7.336   2.502 -0.2411 -0.2245 -0.6672
  181POPC   C3124160   1.598   7.216   2.561 -0.8505 -0.0310 -0.3831
  181POPC   O3224161   1.661   7.119   2.522  0.0443  0.2671  0.3068
  181POPC   C3224162   1.522   7.223   2.692 -0.1303 -0.9872  0.0902
  181POPC   H2X24163   1.475   7.122   2.700 -0.5756 -0.9390 -1.7220
  181POPC   H2Y24164   1.438   7.296   2.693  1.9536  1.4753  0.3127
  181POPC   C2324165   1.876   7.879   2.571  0.1133 -0.1013 -0.3196
  181POPC   H3R24166   1.796   7.948   2.538 -0.6823 -1.0946 -0.5209
  181POPC   H3S24167   1.951   7.867   2.489  0.4758 -0.5216  0.0689
  181POPC   C2424168   1.967   7.930   2.682  0.0077  0.0661 -0.3112
  181POPC   H4R24169   2.032   0.052   2.648 -0.0832  0.4953  0.4508
  181POPC   H4S24170   2.028   7.849   2.728  0.1623 -1.4298 -3.0972
  181POPC   C2524171   1.878   0.008   2.800  0.3057 -0.4844  0.1192
  181POPC   H5R24172   1.821   7.883   2.837 -0.3739 -0.1332  0.0032
  181POPC   H5S24173   1.797   0.076   2.765  1.8598  1.0216 -0.6374
  181POPC   C2624174   1.952   0.084   2.911  0.4856 -0.4606 -0.0171
  181POPC   H6R24175   1.883   0.130   2.985  2.0758 -0.6920  1.6201
  181POPC   H6S24176   2.004   0.169   2.861  0.2953 -1.4594 -1.9839
  181POPC   C2724177   2.064   7.961   2.971  0.0967 -0.7187  0.3426
  181POPC   H7R24178   2.147   0.012   2.898 -0.4619  1.7970  0.1315
  181POPC   H7S24179   2.054   7.851   2.982  2.8799 -1.0018  0.7649
  181POPC   C2824180   2.107   0.036   3.113 -0.6088  0.1592  0.3327
  181POPC   H8R24181   2.021   0.057   3.180  0.1991  1.0003  1.1243
  181POPC   H8S24182   2.160   0.132   3.093 -1.7944  0.4000 -1.8618
  181POPC   C2924183   2.203   7.904   3.180 -0.5363  0.1944  0.3382
  181POPC   H9124184   2.286   7.864   3.120  0.5026  1.5962  0.8242
  181POPC  C21024185   2.178   7.841   3.296 -0.5489 -0.6032 -0.0889
  181POPC  H10124186   2.256   7.774   3.335  1.4745  2.1219  0.7078
  181POPC  C21124187   2.058   7.860   3.384  0.2417  0.7107  0.7212
  181POPC  H11R24188   2.046   7.772   3.451  4.1591  0.9083  1.8021
  181POPC  H11S24189   1.969   7.868   3.318  1.2112  0.8669 -0.5663
  181POPC  C21224190   2.053   0.020   3.477 -0.3590  0.6823  0.7829
  181POPC  H12R24191   2.058   0.108   3.409 -2.8149 -0.6244 -1.1775
  181POPC  H12S24192   2.146   0.024   3.537  0.2697 -0.1732 -0.1288
  181POPC  C21324193   1.924   0.034   3.558 -0.4461 -0.1520  0.7911
  181POPC  H13R24194   1.912   7.901   3.614 -0.5855 -0.6473 -0.0062
  181POPC  H13S24195   1.839   0.036   3.486 -0.1907  0.2514  0.4979
  181POPC  C21424196   1.930   0.147   3.662  0.8255  0.2291  0.3157
  181POPC  H14R24197   2.025   0.148   3.718  0.6740 -1.1404  0.6279
  181POPC  H14S24198   1.844   0.120   3.727 -1.5537  0.7382 -2.4856
  181POPC  C21524199   1.923   0.293   3.618  0.4577  0.1854  0.2256
  181POPC  H15R24200   1.834   0.306   3.552 -0.2872  2.6188  1.6282
  181POPC  H15S24201   2.010   0.320   3.554  0.5953 -1.5054 -0.3277
  181POPC  C21624202   1.888   0.381   3.738  0.2960  0.5966 -0.1202
  181POPC  H16R24203   1.796   0.348   3.791  0.2108 -1.2348 -1.3542
  181POPC  H16S24204   1.860   0.477   3.690  1.2745  0.7863 -0.3177
  181POPC  C21724205   2.007   0.399   3.832  0.9982  0.4564 -0.9766
  181POPC  H17R24206   2.104   0.382   3.780  1.8140  1.0625  0.3116
  181POPC  H17S24207   2.009   0.325   3.915  1.2496  1.5569  0.0230
  181POPC  C21824208   2.011   0.535   3.901 -0.3082  0.0998 -0.1800
  181POPC  H18R24209   2.105   0.535   3.960 -1.4660  1.3737  1.7254
  181POPC  H18S24210   1.920   0.553   3.961  1.0588 -0.4762  2.1222
  181POPC  H18T24211   2.017   0.620   3.829 -0.8801 -1.1898 -1.7568
  181POPC   C3324212   1.628   7.223   2.802 -0.4435 -0.0581  0.3997
  181POPC   H3X24213   1.685   7.318   2.793 -0.8214 -0.0762 -2.7063
  181POPC   H3Y24214   1.691   7.131   2.801  0.9802  0.8943 -1.0061
  181POPC   C3424215   1.572   7.225   2.944 -0.6006  0.5945  0.3277
  181POPC   H4X24216   1.465   7.197   2.945 -0.3842 -0.2409  0.5092
  181POPC   H4Y24217   1.579   7.333   2.972 -0.9279  0.9895 -1.0910
  181POPC   C3524218   1.643   7.141   3.050 -0.1421 -0.1719 -0.5753
  181POPC   H5X24219   1.748   7.123   3.018  0.3497  0.6421  0.5405
  181POPC   H5Y24220   1.595   7.041   3.056  0.5016 -0.3575  3.9943
  181POPC   C3624221   1.661   7.205   3.188 -0.0621 -0.1056 -0.6160
  181POPC   H6X24222   1.560   7.221   3.231 -1.1227  0.8290 -3.4076
  181POPC   H6Y24223   1.714   7.302   3.179 -0.0046  0.0955  1.6005
  181POPC   C3724224   1.765   7.119   3.261  0.2191  0.4744 -0.3304
  181POPC   H7X24225   1.853   7.087   3.201  1.6159  1.2512  1.2604
  181POPC   H7Y24226   1.720   7.021   3.285  0.1185 -0.0540 -2.5782
  181POPC   C3824227   1.807   7.176   3.397 -0.2889  0.2301 -0.0696
  181POPC   H8X24228   1.717   7.187   3.462  0.3354 -2.4225  1.2962
  181POPC   H8Y24229   1.860   7.274   3.388  0.6019  0.1398  3.6866
  181POPC   C3924230   1.903   7.077   3.461 -0.1296  0.4361  0.0100
  181POPC   H9X24231   1.992   7.074   3.394  0.0102 -0.8958  0.2368
  181POPC   H9Y24232   1.849   6.980   3.473  0.5766  0.4410  4.1133
  181POPC  C31024233   1.931   7.124   3.604 -0.1561  0.7142 -0.0781
  181POPC  H10X24234   1.834   7.131   3.658 -0.9772 -0.8272 -1.2964
  181POPC  H10Y24235   1.974   7.227   3.599 -1.4034  1.3897  2.3012
  181POPC  C31124236   2.016   7.032   3.692 -0.5168 -0.3037 -0.7850
  181POPC  H11X24237   2.120   7.029   3.654 -0.1495  0.2486  0.1715
  181POPC  H11Y24238   1.976   6.929   3.702  0.8085 -0.7113  0.4948
  181POPC  C31224239   2.015   7.089   3.834 -0.1942  0.0943 -0.9406
  181POPC  H12X24240   2.101   7.045   3.890 -0.4214 -0.2057 -0.8281
  181POPC  H12Y24241   1.921   7.053   3.880 -2.2736  3.2850 -2.5730
  181POPC  C31324242   2.029   7.239   3.855  0.6046 -0.1123  0.0590
  181POPC  H13X24243   1.948   7.300   3.810 -0.4076 -0.3448  1.5259
  181POPC  H13Y24244   2.130   7.268   3.818  0.9927 -1.9862 -0.4075
  181POPC  C31424245   2.048   7.269   4.004  0.0073  0.3100  0.0520
  181POPC  H14X24246   2.064   7.378   4.016 -0.3832  0.5824 -1.7970
  181POPC  H14Y24247   2.145   7.223   4.031 -0.8922 -2.2986 -1.0660
  181POPC  C31524248   1.937   7.219   4.098 -0.1689  0.4918 -0.0594
  181POPC  H15X24249   1.945   7.109   4.115 -2.0474 -0.0706 -2.4922
  181POPC  H15Y24250   1.839   7.244   4.054  0.6007  0.3386 -1.9362
  181POPC  C31624251   1.952   7.290   4.232  0.5221 -0.1093  0.1913
  181POPC  H16X24252   1.909   7.393   4.225 -0.4566 -0.5826 -0.9462
  181POPC  H16Y24253   2.058   7.298   4.263  1.1599 -0.7306 -1.7785
  181POPC  H16Z24254   1.911   7.219   4.306  1.4725 -1.2172 -0.3274
  182POPC     N24255   5.897   3.044   2.412  0.2656  0.5850  0.1122
  182POPC   C1224256   5.870   3.191   2.392 -0.2881  0.5533  0.6113
  182POPC  H12A24260   5.886   3.197   2.285 -1.0300  1.5600  0.5488
  182POPC  H12B24261   5.941   3.253   2.444 -0.7318  1.7168 -0.1271
  182POPC   C1324257   6.027   3.006   2.344 -0.3411 -0.1551 -0.6410
  182POPC  H13A24262   6.044   2.900   2.354  1.6179  0.3985  2.9058
  182POPC  H13B24263   6.013   3.015   2.237 -4.0073  0.5307 -0.1735
  182POPC  H13C24264   6.108   3.066   2.382 -1.8235  2.4909 -1.5265
  182POPC   C1424258   5.898   3.001   2.557  0.2849 -0.6070 -0.2369
  182POPC  H14A24265   5.809   3.035   2.608 -1.1957 -0.6432 -2.6824
  182POPC  H14B24266   5.907   2.895   2.574 -2.1187 -0.3358  3.1434
  182POPC  H14C24267   5.975   3.049   2.615  0.2688  1.1310 -1.5951
  182POPC   C1524259   5.791   2.971   2.335  0.4409  0.4107  0.0365
  182POPC  H15A24268   5.808   2.989   2.230 -3.1589  3.6822 -0.0883
  182POPC  H15B24269   5.691   3.004   2.360 -0.1200  0.8856 -2.6345
  182POPC  H15C24270   5.802   2.865   2.353 -2.3810  0.2876  1.4613
  182POPC   C1124271   5.736   3.257   2.424 -0.5612  0.1956  0.2188
  182POPC  H11A24272   5.659   3.201   2.368  0.5533 -0.6513 -0.4889
  182POPC  H11B24273   5.720   3.362   2.391  1.2006  0.5912  0.5574
  182POPC     P24274   5.560   3.261   2.607 -0.0744  0.1281 -0.0499
  182POPC   O1324275   5.488   3.140   2.560  0.6970 -0.0870 -0.6821
  182POPC   O1424276   5.508   3.389   2.555 -0.3139 -0.0380 -0.2216
  182POPC   O1224277   5.714   3.255   2.565  0.0039 -0.3443  0.3003
  182POPC   O1124278   5.557   3.274   2.767  0.4515 -0.0616 -0.0259
  182POPC    C124279   5.622   3.165   2.833  0.4663 -0.1455 -0.1780
  182POPC    HA24280   5.652   3.196   2.935 -0.9872  1.6013 -0.2571
  182POPC    HB24281   5.719   3.142   2.785  0.2956  1.0353 -1.1061
  182POPC    C224282   5.525   3.048   2.860  0.0129  0.2818  0.0512
  182POPC    HS24283   5.530   2.984   2.769 -1.4496 -0.9048  0.7928
  182POPC   O2124284   5.393   3.097   2.884 -0.1572 -0.2850  0.2900
  182POPC   C2124285   5.289   3.035   2.827  0.0032 -0.7012  0.4573
  182POPC   O2224286   5.291   2.949   2.741 -0.0127 -0.4183  0.1778
  182POPC   C2224287   5.161   3.087   2.891 -0.1216 -0.0149 -0.3518
  182POPC   H2R24288   5.086   3.096   2.809  0.0252 -1.5615 -0.6653
  182POPC   H2S24289   5.189   3.181   2.943  1.3770 -0.2037 -0.8022
  182POPC    C324290   5.570   2.959   2.977 -0.4407  0.1922  0.1602
  182POPC    HX24291   5.681   2.956   2.975 -0.4907 -2.7359  0.4843
  182POPC    HY24292   5.543   2.854   2.955  1.0909  0.3537 -2.8728
  182POPC   O3124293   5.516   3.003   3.101 -0.2249  0.5222  0.1394
  182POPC   C3124294   5.585   2.976   3.212  0.0548  0.2109 -0.1094
  182POPC   O3224295   5.687   2.910   3.218 -0.2476 -0.2596 -0.0966
  182POPC   C3224296   5.508   3.035   3.330 -0.4096 -0.4567 -0.0748
  182POPC   H2X24297   5.480   2.958   3.404 -0.4906 -0.2227  0.1385
  182POPC   H2Y24298   5.420   3.093   3.296  1.8751  2.3695 -1.3993
  182POPC   C2324299   5.134   2.984   3.001  0.3306  0.5105  0.2544
  182POPC   H3R24300   5.228   2.964   3.056  0.5516  0.4994 -0.1260
  182POPC   H3S24301   5.106   2.900   2.934  1.1835  0.2431  0.2287
  182POPC   C2424302   5.020   3.024   3.096 -0.0789  0.0919 -0.0573
  182POPC   H4R24303   4.941   3.045   3.021  1.7533  1.4558 -1.6741
  182POPC   H4S24304   5.046   3.119   3.148  0.3525  0.7288 -1.3877
  182POPC   C2524305   4.993   2.932   3.215  0.4494  0.2351  0.1758
  182POPC   H5R24306   4.976   2.832   3.169 -0.7381  1.5324 -2.3275
  182POPC   H5S24307   4.896   2.962   3.261  0.7149 -0.1140  0.9695
  182POPC   C2624308   5.110   2.936   3.314  0.3489  0.2253  0.2952
  182POPC   H6R24309   5.116   3.041   3.351 -1.3167 -0.1521  1.6941
  182POPC   H6S24310   5.201   2.905   3.259 -0.2677  0.0107 -0.6148
  182POPC   C2724311   5.105   2.839   3.432  0.4811 -0.2696 -0.1062
  182POPC   H7R24312   5.075   2.741   3.388 -2.3142 -0.8357  2.9044
  182POPC   H7S24313   5.030   2.870   3.507  0.9444  3.0785 -0.9688
  182POPC   C2824314   5.238   2.810   3.502  0.1514  0.0070  0.6408
  182POPC   H8R24315   5.328   2.802   3.437  1.6835  0.8783  2.5950
  182POPC   H8S24316   5.222   2.708   3.543 -0.7606 -0.3993 -0.6854
  182POPC   C2924317   5.252   2.909   3.613  0.6070  0.7416 -0.0681
  182POPC   H9124318   5.214   3.009   3.588 -2.0088 -0.3482 -0.6067
  182POPC  C21024319   5.289   2.883   3.739 -0.7515  0.3177  0.2495
  182POPC  H10124320   5.299   2.959   3.818 -0.0100 -1.1112  1.5646
  182POPC  C21124321   5.340   2.749   3.783 -0.3087  0.4093  0.0246
  182POPC  H11R24322   5.442   2.758   3.826 -1.2403  3.7522  1.7443
  182POPC  H11S24323   5.337   2.675   3.700 -1.2666  0.8880 -0.3764
  182POPC  C21224324   5.244   2.702   3.894  0.4393 -0.3537  0.3531
  182POPC  H12R24325   5.230   2.778   3.974  0.8551  0.2488 -0.1405
  182POPC  H12S24326   5.291   2.612   3.939  2.6094 -0.2961 -1.6778
  182POPC  C21324327   5.107   2.646   3.858  0.4627 -0.2767  0.1411
  182POPC  H13R24328   5.123   2.541   3.826 -2.4368 -0.6936 -0.0880
  182POPC  H13S24329   5.072   2.707   3.772 -2.0586 -1.1253  0.5146
  182POPC  C21424330   5.008   2.658   3.974  0.0031  0.2958 -0.2987
  182POPC  H14R24331   5.052   2.613   4.067 -0.2567 -0.4354 -0.5242
  182POPC  H14S24332   4.919   2.594   3.955  1.2684 -1.1659 -1.4327
  182POPC  C21524333   4.970   2.800   4.016 -0.5853  0.0910 -0.1351
  182POPC  H15R24334   4.945   2.842   3.917 -0.1571  0.5278 -0.0567
  182POPC  H15S24335   5.053   2.860   4.059 -0.4299 -0.4259  0.3017
  182POPC  C21624336   4.854   2.798   4.116 -0.3393 -0.4464  0.1441
  182POPC  H16R24337   4.855   2.722   4.197  0.4210 -0.6798 -0.0783
  182POPC  H16S24338   4.770   2.782   4.046 -1.9312  1.0610  1.6663
  182POPC  C21724339   4.836   2.934   4.184  0.0739 -0.2430 -0.1455
  182POPC  H17R24340   4.822   3.000   4.096 -1.0434 -0.1579  0.0822
  182POPC  H17S24341   4.921   2.965   4.248 -1.7112  2.0519  1.2047
  182POPC  C21824342   4.718   2.953   4.279  0.3732  0.1023  0.1596
  182POPC  H18R24343   4.709   3.057   4.317  0.9788  0.2586 -0.1257
  182POPC  H18S24344   4.735   2.893   4.371 -1.6473  0.9875  1.1406
  182POPC  H18T24345   4.619   2.922   4.239 -0.0634  3.1645 -1.2360
  182POPC   C3324346   5.605   3.135   3.393 -0.6737 -0.2173 -0.0504
  182POPC   H3X24347   5.595   3.227   3.332 -2.7105 -0.0014  0.5948
  182POPC   H3Y24348   5.705   3.088   3.399 -0.2297  0.7731  0.5528
  182POPC   C3424349   5.559   3.166   3.536 -1.0367  0.2012 -0.2594
  182POPC   H4X24350   5.541   3.074   3.595 -0.2232  1.2666  1.6984
  182POPC   H4Y24351   5.456   3.209   3.531 -1.8567 -1.5428  1.3159
  182POPC   C3524352   5.653   3.235   3.635 -0.7537  0.3042 -0.5975
  182POPC   H5X24353   5.659   3.338   3.594  2.0058  0.1795 -0.6303
  182POPC   H5Y24354   5.752   3.186   3.623  0.8734  3.1332  0.9726
  182POPC   C3624355   5.614   3.235   3.783  0.2108 -0.0471 -0.3417
  182POPC   H6X24356   5.595   3.138   3.835 -1.3984  2.1614  3.4106
  182POPC   H6Y24357   5.522   3.296   3.783  0.6625  0.6288 -0.9014
  182POPC   C3724358   5.733   3.301   3.853 -0.1736  0.2392  0.0434
  182POPC   H7X24359   5.736   3.405   3.814  1.2485 -0.3942 -1.6200
  182POPC   H7Y24360   5.823   3.243   3.821  0.5564  0.7390  1.1735
  182POPC   C3824361   5.736   3.285   4.005 -0.1459  0.5292  0.0747
  182POPC   H8X24362   5.760   3.177   4.017  0.4662  0.4033 -2.0211
  182POPC   H8Y24363   5.631   3.296   4.040 -0.2178 -1.2938  0.4836
  182POPC   C3924364   5.824   3.383   4.083 -0.1842  0.3571  0.3352
  182POPC   H9X24365   5.928   3.385   4.044  0.0064 -0.4372  0.7906
  182POPC   H9Y24366   5.829   3.364   4.192  2.4588  1.7031  0.4857
  182POPC  C31024367   5.764   3.523   4.067 -0.3182  0.2870  0.2177
  182POPC  H10X24368   5.654   3.511   4.084 -0.5976  0.6001 -1.2931
  182POPC  H10Y24369   5.764   3.561   3.963  1.2909  0.4774  0.2866
  182POPC  C31124370   5.817   3.646   4.141  0.6106 -0.2471  0.4454
  182POPC  H11X24371   5.907   3.682   4.087 -0.1376  0.6172 -0.2475
  182POPC  H11Y24372   5.847   3.612   4.243 -1.2868  1.4602  1.6244
  182POPC  C31224373   5.717   3.761   4.150  0.6722 -0.1999  0.5172
  182POPC  H12X24374   5.622   3.732   4.201 -0.5746 -1.7311 -2.5447
  182POPC  H12Y24375   5.690   3.795   4.048  1.2359  2.6003  1.2433
  182POPC  C31324376   5.771   3.876   4.235 -0.2868  0.3327  0.4162
  182POPC  H13X24377   5.875   3.911   4.217 -0.6688  1.8064  0.9734
  182POPC  H13Y24378   5.779   3.842   4.340 -0.7559 -0.6381  0.1375
  182POPC  C31424379   5.673   3.993   4.222 -0.3218  0.2554 -0.0277
  182POPC  H14X24380   5.574   3.950   4.193 -0.5796  1.9470 -1.6835
  182POPC  H14Y24381   5.702   4.060   4.140 -1.9220  1.0437  0.0220
  182POPC  C31524382   5.648   4.070   4.352  0.1342 -0.1314  0.2910
  182POPC  H15X24383   5.571   4.015   4.410 -0.6372 -0.8692 -1.3985
  182POPC  H15Y24384   5.601   4.170   4.339 -1.6070 -0.9047  0.4834
  182POPC  C31624385   5.771   4.086   4.441  0.0189  0.2197  0.3869
  182POPC  H16X24386   5.745   4.112   4.546 -0.0860 -0.2541  0.4821
  182POPC  H16Y24387   5.828   4.170   4.397  1.0503 -0.0161  1.2460
  182POPC  H16Z24388   5.841   4.000   4.441  0.1673  0.3390  0.6484
  183POPC     N24389   1.327   1.051   1.796  0.4334 -0.2483  0.9848
  183POPC   C1224390   1.452   1.132   1.777 -0.2029  0.3314 -0.8573
  183POPC  H12A24394   1.433   1.239   1.781  0.9396  0.5468 -0.8084
  183POPC  H12B24395   1.465   1.105   1.674 -0.9420 -0.7215 -0.6809
  183POPC   C1324391   1.235   1.070   1.678  0.3348  0.5523  1.1891
  183POPC  H13A24396   1.149   1.005   1.684  0.2591  0.4737 -0.4089
  183POPC  H13B24397   1.212   1.176   1.683  1.2196  0.8731 -1.1465
  183POPC  H13C24398   1.298   1.047   1.593  0.2240 -0.4224  1.3650
  183POPC   C1424392   1.354   0.905   1.821  0.0984 -0.5192 -0.2333
  183POPC  H14A24399   1.436   0.882   1.888 -1.2180 -1.5182  1.0597
  183POPC  H14B24400   1.264   0.861   1.862 -0.7782  0.1868 -1.3634
  183POPC  H14C24401   1.370   0.847   1.731  0.7496 -2.1120  0.8811
  183POPC   C1524393   1.253   1.107   1.915 -0.8522 -0.0017  0.0807
  183POPC  H15A24402   1.151   1.070   1.911 -0.8298 -0.0560  0.0139
  183POPC  H15B24403   1.254   1.215   1.915  0.1590 -0.0008 -2.3541
  183POPC  H15C24404   1.305   1.089   2.008  0.2741 -0.5244 -0.6480
  183POPC   C1124405   1.570   1.101   1.871 -0.8076 -0.3402 -0.3171
  183POPC  H11A24406   1.653   1.169   1.842 -0.4286  0.8125  3.2715
  183POPC  H11B24407   1.596   0.997   1.844 -1.6758 -0.4127 -0.9123
  183POPC     P24408   1.654   1.056   2.095  0.1753 -0.1225  0.1777
  183POPC   O1324409   1.780   1.124   2.062  0.1338 -0.1386 -0.0132
  183POPC   O1424410   1.662   0.908   2.086  0.5724 -0.0853 -0.0765
  183POPC   O1224411   1.530   1.108   2.008  0.2541 -0.2557 -0.0148
  183POPC   O1124412   1.607   1.094   2.243 -0.2034  0.4904 -0.0973
  183POPC    C124413   1.490   1.026   2.291  0.2171 -0.3804 -0.3021
  183POPC    HA24414   1.436   0.964   2.217 -0.9077  0.6539 -0.3617
  183POPC    HB24415   1.419   1.107   2.318 -0.2186 -1.3355  1.5506
  183POPC    C224416   1.504   0.962   2.431  0.4666 -0.2841 -0.2819
  183POPC    HS24417   1.404   0.925   2.461 -0.1461 -0.1628 -2.0785
  183POPC   O2124418   1.559   1.056   2.524  0.2056 -0.5951  0.1891
  183POPC   C2124419   1.472   1.123   2.599  0.3517 -0.2298  0.0346
  183POPC   O2224420   1.351   1.125   2.584  0.3487  0.2203  0.1276
  183POPC   C2224421   1.551   1.202   2.702  0.0736  0.1849 -0.0703
  183POPC   H2R24422   1.503   1.300   2.724 -2.7133 -0.8247 -1.3304
  183POPC   H2S24423   1.660   1.201   2.684 -0.0050 -1.4416 -0.4992
  183POPC    C324424   1.602   0.844   2.420  0.3663 -0.3548 -0.4346
  183POPC    HX24425   1.699   0.894   2.397  0.5595 -0.5551 -0.0612
  183POPC    HY24426   1.551   0.792   2.337  2.2579 -1.5246 -0.8975
  183POPC   O3124427   1.603   0.753   2.530 -0.0106 -0.4287 -0.4930
  183POPC   C3124428   1.706   0.764   2.614 -0.1203 -0.1420 -0.3974
  183POPC   O3224429   1.791   0.851   2.620 -0.1693 -0.1399  0.3388
  183POPC   C3224430   1.703   0.660   2.725  0.3568  0.1674 -0.0873
  183POPC   H2X24431   1.796   0.600   2.728 -0.5218 -1.2984 -1.1809
  183POPC   H2Y24432   1.621   0.590   2.697  0.0435 -0.3139  1.9536
  183POPC   C2324433   1.520   1.123   2.830  0.1889  0.4462  0.1199
  183POPC   H3R24434   1.564   1.022   2.817 -0.4160 -0.0242  1.6689
  183POPC   H3S24435   1.409   1.115   2.825  0.1612  0.9127 -0.0306
  183POPC   C2424436   1.568   1.186   2.961  0.5378  0.5472 -0.0562
  183POPC   H4R24437   1.529   1.289   2.971  2.2794  1.0545  1.8820
  183POPC   H4S24438   1.679   1.188   2.963  0.6170 -1.5941 -0.1467
  183POPC   C2524439   1.523   1.103   3.082 -0.3139  0.1554 -0.6331
  183POPC   H5R24440   1.541   0.995   3.068 -1.5278 -0.1035 -0.2113
  183POPC   H5S24441   1.415   1.112   3.108 -0.4818  0.6946 -1.4887
  183POPC   C2624442   1.593   1.136   3.214 -0.0493 -0.3056 -0.6578
  183POPC   H6R24443   1.574   1.246   3.219  1.0769 -0.0179 -2.0977
  183POPC   H6S24444   1.703   1.117   3.217 -0.1393 -0.7162  0.0361
  183POPC   C2724445   1.537   1.065   3.337  0.5971 -0.0989 -0.2415
  183POPC   H7R24446   1.563   0.957   3.338  2.2107  0.2653 -0.8196
  183POPC   H7S24447   1.427   1.056   3.344  0.7209 -1.9587 -0.4835
  183POPC   C2824448   1.592   1.129   3.465  0.0958  0.0469 -0.0985
  183POPC   H8R24449   1.530   1.114   3.556 -0.0970  2.7861  0.2436
  183POPC   H8S24450   1.577   1.236   3.440  0.4427  0.5019  1.6002
  183POPC   C2924451   1.738   1.107   3.492  0.0966 -0.2643 -0.3505
  183POPC   H9124452   1.799   1.092   3.402 -0.2398 -0.8729 -0.4777
  183POPC  C21024453   1.800   1.092   3.610 -0.0814 -0.0172 -0.2249
  183POPC  H10124454   1.910   1.093   3.600  0.0014 -1.4598  0.4371
  183POPC  C21124455   1.742   1.075   3.747 -0.1867  0.0155 -0.2657
  183POPC  H11R24456   1.776   0.982   3.798  1.6340  1.6129  1.5586
  183POPC  H11S24457   1.631   1.072   3.749 -0.1992 -0.8077 -1.6598
  183POPC  C21224458   1.785   1.188   3.842 -0.6511 -0.2125  0.2200
  183POPC  H12R24459   1.722   1.191   3.933 -1.3723  0.2242 -0.2931
  183POPC  H12S24460   1.773   1.289   3.797 -0.9728 -1.0158 -1.5319
  183POPC  C21324461   1.931   1.181   3.886 -0.6827 -0.3007  0.3103
  183POPC  H13R24462   1.992   1.153   3.797 -0.7291  1.1196 -0.1832
  183POPC  H13S24463   1.943   1.108   3.969  1.6797 -0.0538  0.2424
  183POPC  C21424464   1.999   1.299   3.956 -0.6884 -0.2552  0.2399
  183POPC  H14R24465   1.993   1.389   3.892  0.9462  0.3915  0.9592
  183POPC  H14S24466   2.105   1.272   3.980 -0.6775 -0.7077 -0.3103
  183POPC  C21524467   1.928   1.340   4.085 -0.6383  0.2505  0.1060
  183POPC  H15R24468   1.917   1.265   4.166 -0.8275  1.4219  1.1822
  183POPC  H15S24469   1.820   1.358   4.067 -0.5259  0.1095 -0.7357
  183POPC  C21624470   2.003   1.465   4.132  0.0806 -0.1563  0.0529
  183POPC  H16R24471   1.989   1.536   4.048 -0.5552  1.7382  1.7208
  183POPC  H16S24472   2.112   1.459   4.149 -0.0095 -1.9078  0.0725
  183POPC  C21724473   1.928   1.525   4.251 -0.1651  0.3662 -0.3648
  183POPC  H17R24474   1.941   1.462   4.342  1.3907 -0.7061 -1.3040
  183POPC  H17S24475   1.822   1.502   4.227  0.2820 -1.1431 -0.9515
  183POPC  C21824476   1.964   1.669   4.289 -0.6891  0.3689  0.1245
  183POPC  H18R24477   1.946   1.730   4.198 -1.1932  0.4551  0.2814
  183POPC  H18S24478   2.072   1.671   4.317 -0.6434 -0.3538  0.0139
  183POPC  H18T24479   1.901   1.707   4.373 -1.1372  0.4824 -0.2651
  183POPC   C3324480   1.677   0.728   2.859  0.4167 -0.5577  0.2927
  183POPC   H3X24481   1.588   0.793   2.856  1.9160  1.4853 -1.0627
  183POPC   H3Y24482   1.758   0.794   2.896  0.3935 -0.1687 -0.3577
  183POPC   C3424483   1.663   0.630   2.976  0.2863 -0.6367  0.2107
  183POPC   H4X24484   1.745   0.556   2.970 -0.5912 -1.5667 -0.3871
  183POPC   H4Y24485   1.578   0.561   2.955  0.7156 -0.8931 -0.6751
  183POPC   C3524486   1.652   0.696   3.114  0.0232  0.0133 -0.1160
  183POPC   H5X24487   1.573   0.771   3.094 -1.7903 -1.9522 -0.5730
  183POPC   H5Y24488   1.746   0.748   3.141 -0.0706  0.8621 -1.4286
  183POPC   C3624489   1.618   0.596   3.225  0.0001  0.2023  0.0480
  183POPC   H6X24490   1.700   0.522   3.238 -1.4173 -1.1838  1.5183
  183POPC   H6Y24491   1.534   0.532   3.187  0.0521  1.1358 -1.6822
  183POPC   C3724492   1.597   0.663   3.361 -0.2274 -0.2102  0.2196
  183POPC   H7X24493   1.525   0.747   3.347  1.4977  0.9487 -2.0213
  183POPC   H7Y24494   1.696   0.702   3.393  1.3768 -1.9896 -2.3632
  183POPC   C3824495   1.561   0.571   3.477  0.2631 -0.5918  0.0734
  183POPC   H8X24496   1.647   0.501   3.475  1.3804  0.7797 -0.5676
  183POPC   H8Y24497   1.467   0.516   3.456 -0.2905 -0.0955  1.1713
  183POPC   C3924498   1.560   0.653   3.607  0.2940 -0.1492 -0.2042
  183POPC   H9X24499   1.473   0.721   3.597  1.1335  0.5794 -3.1577
  183POPC   H9Y24500   1.639   0.731   3.597 -0.8089  0.8982 -0.8490
  183POPC  C31024501   1.544   0.591   3.746  0.2937 -0.5165 -0.3673
  183POPC  H10X24502   1.567   0.669   3.821 -1.3258 -2.0167  1.7691
  183POPC  H10Y24503   1.617   0.508   3.753  0.0131 -0.8682 -1.4597
  183POPC  C31124504   1.402   0.540   3.770  0.1569  0.1129  0.1683
  183POPC  H11X24505   1.377   0.458   3.699 -0.8499 -1.9920  2.8893
  183POPC  H11Y24506   1.322   0.617   3.762 -1.7675 -1.9446 -1.1368
  183POPC  C31224507   1.375   0.489   3.911  0.2045  0.1161  0.1780
  183POPC  H12X24508   1.353   0.568   3.986 -0.3718  0.5464 -0.4354
  183POPC  H12Y24509   1.470   0.444   3.946  0.9268  1.5131  0.0282
  183POPC  C31324510   1.265   0.382   3.911  0.2203  0.0999 -0.0372
  183POPC  H13X24511   1.279   0.328   4.007 -0.5933 -1.2076 -0.6282
  183POPC  H13Y24512   1.288   0.315   3.825 -0.6771 -0.9043  0.4901
  183POPC  C31424513   1.128   0.448   3.902  0.1844  0.0271 -0.0179
  183POPC  H14X24514   1.123   0.509   3.809 -1.3296 -2.6360 -1.7782
  183POPC  H14Y24515   1.105   0.508   3.992 -1.1262 -0.9086  0.2894
  183POPC  C31524516   1.015   0.345   3.903 -0.0140  0.2473  0.2130
  183POPC  H15X24517   0.925   0.410   3.902  0.5418  1.0061 -0.2687
  183POPC  H15Y24518   1.019   0.282   3.995  2.2592  0.7028  0.4366
  183POPC  C31624519   1.010   0.251   3.783 -0.1010  0.6767 -0.1199
  183POPC  H16X24520   1.104   0.193   3.774 -1.1525 -0.9907 -0.6804
  183POPC  H16Y24521   0.994   0.310   3.690 -1.0849 -0.2735 -0.5633
  183POPC  H16Z24522   0.925   0.181   3.795 -0.2479  0.7334 -0.7954
  184POPC     N24523   0.910   7.317   2.093  0.0670 -0.0392  0.1299
  184POPC   C1224524   0.910   7.336   2.243 -0.5403 -0.2243  0.1561
  184POPC  H12A24528   0.811   7.303   2.272 -1.2119  2.0110  0.4894
  184POPC  H12B24529   0.902   7.442   2.259 -1.3075 -0.2797  0.1541
  184POPC   C1324525   0.917   7.172   2.050  0.5936  0.1659 -0.4714
  184POPC  H13A24530   0.868   7.119   2.130  2.2198  2.8524  2.4030
  184POPC  H13B24531   0.869   7.146   1.956  1.2262 -3.6166  0.1731
  184POPC  H13C24532   1.022   7.150   2.038 -0.0144 -2.2294 -1.6265
  184POPC   C1424526   0.775   7.363   2.043  0.3466  0.1083 -0.5026
  184POPC  H14A24533   0.694   7.311   2.093  0.9229  0.9830  1.3979
  184POPC  H14B24534   0.763   7.470   2.049  0.2465  0.0047  1.8676
  184POPC  H14C24535   0.759   7.343   1.939 -1.2511  0.5949 -0.3768
  184POPC   C1524527   1.013   7.398   2.019  0.1240 -0.1628  0.0749
  184POPC  H15A24536   1.110   7.374   2.060  0.2491 -1.0233 -0.7072
  184POPC  H15B24537   0.996   7.504   2.029 -2.1685 -0.7181  2.5805
  184POPC  H15C24538   1.011   7.378   1.912  0.0711  1.3979 -0.2295
  184POPC   C1124539   1.026   7.267   2.314  0.2376  0.4981 -0.4016
  184POPC  H11A24540   1.015   7.157   2.321 -2.6121  0.8953  3.0289
  184POPC  H11B24541   1.029   7.305   2.418  0.8529 -1.9182  0.4965
  184POPC     P24542   1.281   7.283   2.327  0.3347  0.1793 -0.1599
  184POPC   O1324543   1.396   7.295   2.234  0.4864 -0.5734 -0.0718
  184POPC   O1424544   1.268   7.164   2.414 -0.1906  0.4479  0.1332
  184POPC   O1224545   1.146   7.300   2.243  0.3354  1.0302  0.0022
  184POPC   O1124546   1.277   7.415   2.417  0.2437  0.3550 -0.4204
  184POPC    C124547   1.207   7.534   2.379 -0.1759  0.2754  0.0956
  184POPC    HA24548   1.100   7.529   2.410 -0.7917  1.8975 -1.6653
  184POPC    HB24549   1.209   7.545   2.268  0.3119  0.5242  0.1304
  184POPC    C224550   1.280   7.660   2.427  0.4162 -0.0880  0.1536
  184POPC    HS24551   1.376   7.651   2.372  0.0192  0.4072 -0.6253
  184POPC   O2124552   1.284   7.637   2.568 -0.2031 -0.8601  0.0486
  184POPC   C2124553   1.382   7.711   2.620 -0.6822 -0.0549 -0.1866
  184POPC   O2224554   1.463   7.770   2.551 -0.0684 -1.1117 -0.3817
  184POPC   C2224555   1.387   7.686   2.770  0.4759 -0.0706 -0.2250
  184POPC   H2R24556   1.344   7.588   2.800 -2.4132  1.7968  1.9962
  184POPC   H2S24557   1.324   7.766   2.815  0.5659 -0.4122  0.5226
  184POPC    C324558   1.209   7.792   2.389  0.1404 -0.2657  0.0478
  184POPC    HX24559   1.223   7.804   2.279 -2.0536  1.7975 -0.0133
  184POPC    HY24560   1.262   7.876   2.437  2.0248 -0.8879 -0.8582
  184POPC   O3124561   1.071   7.790   2.423  0.1853 -0.2483  0.2291
  184POPC   C3124562   1.037   7.843   2.541 -0.2382 -0.0901  0.0378
  184POPC   O3224563   1.123   7.887   2.615 -0.0508 -0.2999 -0.0549
  184POPC   C3224564   0.886   7.854   2.557 -0.2338 -0.1954  0.1516
  184POPC   H2X24565   0.862   7.754   2.599 -1.0422 -0.3579 -0.6859
  184POPC   H2Y24566   0.843   7.864   2.455  1.6147  1.0705 -0.5304
  184POPC   C2324567   1.523   7.717   2.833  0.2112  0.1141  0.2581
  184POPC   H3R24568   1.553   7.817   2.797  1.3264 -0.7010 -1.1187
  184POPC   H3S24569   1.596   7.645   2.789  0.0594  0.9805 -1.4570
  184POPC   C2424570   1.524   7.696   2.985 -0.2699 -0.0733  0.2358
  184POPC   H4R24571   1.512   7.589   3.011  2.6963 -0.1792  1.3215
  184POPC   H4S24572   1.440   7.752   3.033  0.4164  0.2095  1.1122
  184POPC   C2524573   1.651   7.741   3.058 -0.0257 -0.7364  0.2231
  184POPC   H5R24574   1.634   7.752   3.167 -3.2353  1.5674 -0.4112
  184POPC   H5S24575   1.700   7.838   3.032  2.1513 -2.4591 -2.3817
  184POPC   C2624576   1.758   7.634   3.042  0.0667 -0.6868  0.5145
  184POPC   H6R24577   1.781   7.631   2.933  0.6858 -1.0231  0.6518
  184POPC   H6S24578   1.708   7.538   3.065 -0.7546 -0.5232 -0.5652
  184POPC   C2724579   1.883   7.642   3.130  0.2117 -0.0244  0.2494
  184POPC   H7R24580   1.851   7.646   3.236 -1.1546 -0.8430 -0.1233
  184POPC   H7S24581   1.945   7.734   3.120 -4.9858  3.3425 -3.7733
  184POPC   C2824582   1.973   7.519   3.120 -0.2296 -0.3417  0.1534
  184POPC   H8R24583   1.907   7.434   3.147 -1.1511 -0.3711 -2.1239
  184POPC   H8S24584   2.062   7.515   3.187 -0.9936  0.0595  1.2059
  184POPC   C2924585   2.027   7.506   2.981  0.0957  0.0743  0.2379
  184POPC   H9124586   2.035   7.598   2.920 -0.1117 -0.4430 -0.5888
  184POPC  C21024587   2.037   7.390   2.914  0.1965  0.0219  0.3461
  184POPC  H10124588   2.089   7.396   2.818  0.6720  0.5531  0.6307
  184POPC  C21124589   2.019   7.252   2.972  0.0684 -0.3183 -0.5062
  184POPC  H11R24590   1.955   7.188   2.907  0.1956  0.7730 -1.7457
  184POPC  H11S24591   1.990   7.253   3.079  0.6544 -0.9341 -0.3388
  184POPC  C21224592   2.157   7.185   2.976  0.2377  0.0279 -0.5057
  184POPC  H12R24593   2.227   7.248   3.035 -0.7301 -0.2710  0.9873
  184POPC  H12S24594   2.187   7.166   2.871 -0.5819 -2.0432 -0.3893
  184POPC  C21324595   2.173   7.059   3.060 -0.1496 -0.2132 -0.7886
  184POPC  H13R24596   2.099   6.992   3.012  0.7038 -1.0066 -1.0025
  184POPC  H13S24597   2.135   7.078   3.163  1.2912 -0.3644 -0.2021
  184POPC  C21424598   2.314   6.999   3.063 -0.1914 -0.2854 -0.0253
  184POPC  H14R24599   2.391   7.068   3.103 -0.3979  0.3928 -0.7878
  184POPC  H14S24600   2.348   6.982   2.958 -1.2797 -1.3449 -0.2244
  184POPC  C21524601   2.319   6.857   3.120 -0.4598 -0.3087 -0.0603
  184POPC  H15R24602   2.244   6.797   3.063  1.1183 -2.3824 -0.0196
  184POPC  H15S24603   2.286   6.851   3.226  0.5704 -3.2834  0.1462
  184POPC  C21624604   2.447   6.774   3.120  0.0368  0.4519  0.1556
  184POPC  H16R24605   2.421   6.674   3.162  0.6524 -0.1169 -0.7891
  184POPC  H16S24606   2.528   6.815   3.184  0.7294 -1.2440  0.3948
  184POPC  C21724607   2.496   6.750   2.976  0.3198 -0.4634  0.3977
  184POPC  H17R24608   2.601   6.717   2.991 -0.2515 -2.5804 -0.1155
  184POPC  H17S24609   2.490   6.850   2.928  2.7660 -0.2435  0.4841
  184POPC  C21824610   2.410   6.657   2.892  0.0124 -0.2265  0.4487
  184POPC  H18R24611   2.449   6.641   2.789 -0.4096 -3.2032  0.7115
  184POPC  H18S24612   2.303   6.688   2.889 -0.0747 -0.4334  1.1804
  184POPC  H18T24613   2.405   6.557   2.941 -0.1315 -0.2831  0.3169
  184POPC   C3324614   0.851   0.016   2.640  0.2280  0.0682  0.0160
  184POPC   H3X24615   0.853   0.096   2.563 -1.4699  0.7880  0.7047
  184POPC   H3Y24616   0.936   0.029   2.711  0.2302 -0.2688  0.0801
  184POPC   C3424617   0.724   0.023   2.724  0.3737  0.4349  0.2065
  184POPC   H4X24618   0.728   7.925   2.818  1.1662 -0.4243 -0.3363
  184POPC   H4Y24619   0.640   7.939   2.667 -0.3177  0.3406  1.2439
  184POPC   C3524620   0.683   0.160   2.778  0.1968  0.3907  0.1876
  184POPC   H5X24621   0.659   0.220   2.688 -2.1960 -2.8822 -1.4302
  184POPC   H5Y24622   0.772   0.207   2.825  0.1595 -1.0424  1.7541
  184POPC   C3624623   0.563   0.145   2.872  0.5829 -0.2264  0.5877
  184POPC   H6X24624   0.574   0.060   2.943 -3.2090 -0.7781  0.6081
  184POPC   H6Y24625   0.473   0.121   2.811 -0.5769  1.0198  1.7687
  184POPC   C3724626   0.537   0.274   2.950  0.4499  0.0754  0.0456
  184POPC   H7X24627   0.429   0.280   2.978  0.0941 -0.7096 -1.1038
  184POPC   H7Y24628   0.559   0.363   2.887 -2.1569 -0.1953 -1.3428
  184POPC   C3824629   0.633   0.263   3.068  0.7405  0.3978 -0.1607
  184POPC   H8X24630   0.735   0.231   3.038 -0.5539 -2.3702 -1.8094
  184POPC   H8Y24631   0.607   0.181   3.138 -0.3139  1.7673  1.0873
  184POPC   C3924632   0.651   0.397   3.140  0.3599  0.6234 -0.4850
  184POPC   H9X24633   0.554   0.451   3.139 -0.3614 -0.6243  0.3177
  184POPC   H9Y24634   0.722   0.466   3.090  1.7185 -1.4165 -1.4687
  184POPC  C31024635   0.679   0.374   3.289 -0.0278  0.2419 -0.4708
  184POPC  H10X24636   0.702   0.473   3.332 -1.7681  0.9509 -1.1375
  184POPC  H10Y24637   0.766   0.305   3.290 -0.9125 -0.8943  0.0377
  184POPC  C31124638   0.568   0.308   3.372  0.0471 -0.0846 -0.6293
  184POPC  H11X24639   0.564   0.199   3.347 -2.0796 -0.1681 -0.0348
  184POPC  H11Y24640   0.467   0.347   3.348 -0.3899  0.1981  1.5662
  184POPC  C31224641   0.580   0.318   3.524  0.3187  0.4544 -0.6862
  184POPC  H12X24642   0.669   0.258   3.555  1.0374  3.7932  4.3250
  184POPC  H12Y24643   0.495   0.264   3.569 -0.3597  2.0251 -0.0430
  184POPC  C31324644   0.593   0.461   3.578  0.6933  0.0603  0.2712
  184POPC  H13X24645   0.506   0.526   3.556  0.2077 -0.5627  0.3053
  184POPC  H13Y24646   0.680   0.502   3.524 -0.3152 -0.8236 -2.0998
  184POPC  C31424647   0.608   0.470   3.730 -0.2951 -0.3552  0.3978
  184POPC  H14X24648   0.671   0.390   3.775 -1.1070 -0.7660  0.8298
  184POPC  H14Y24649   0.508   0.464   3.778 -0.0753  0.7656  1.0146
  184POPC  C31524650   0.675   0.605   3.756 -0.4407 -0.2345  0.1439
  184POPC  H15X24651   0.755   0.629   3.683 -2.3355  1.8472 -1.3370
  184POPC  H15Y24652   0.728   0.609   3.854 -1.9121  0.8783  0.9157
  184POPC  C31624653   0.564   0.710   3.753 -0.0956  0.1258 -0.0131
  184POPC  H16X24654   0.612   0.810   3.746  0.0139  0.0146 -1.0576
  184POPC  H16Y24655   0.498   0.706   3.842 -1.7468 -0.7691 -1.2426
  184POPC  H16Z24656   0.497   0.698   3.664 -1.1960 -0.8353  0.9278
  185POPC     N24657   5.855   1.960   2.232 -0.2245 -0.3670  0.0703
  185POPC   C1224658   5.805   2.096   2.275  0.0373 -0.1492 -0.3072
  185POPC  H12A24662   5.720   2.091   2.342  3.1285 -0.4181  3.8062
  185POPC  H12B24663   5.762   2.146   2.189  0.7881  1.2003  0.0966
  185POPC   C1324659   5.912   1.876   2.343  0.1987 -0.1253  0.0385
  185POPC  H13A24664   6.003   1.924   2.376 -1.8177  1.5336  3.4383
  185POPC  H13B24665   5.840   1.874   2.423 -2.3212 -2.4499 -2.1814
  185POPC  H13C24666   5.941   1.777   2.310 -0.2207 -0.2501  0.0472
  185POPC   C1424660   5.747   1.876   2.168 -0.4936  0.3099 -0.3676
  185POPC  H14A24667   5.772   1.772   2.156  0.5348  0.7505 -2.2765
  185POPC  H14B24668   5.652   1.898   2.215 -0.8660 -0.8061 -0.5857
  185POPC  H14C24669   5.739   1.913   2.067 -0.0012  0.5416 -0.3255
  185POPC   C1524661   5.964   1.976   2.128 -0.0766  0.0688  0.2884
  185POPC  H15A24670   5.926   2.035   2.045 -1.7741  0.6807  1.4601
  185POPC  H15B24671   5.994   1.880   2.089 -1.0159 -0.1178  0.0060
  185POPC  H15C24672   6.048   2.027   2.173 -0.0658  0.2330  0.0815
  185POPC   C1124673   5.898   2.197   2.342 -0.0143 -0.1911 -0.1730
  185POPC  H11A24674   5.851   2.298   2.337  0.3864  0.1157  2.0157
  185POPC  H11B24675   5.984   2.193   2.271 -0.8496  0.4494 -1.2341
  185POPC     P24676   5.868   2.216   2.599  0.3414  0.2002  0.0612
  185POPC   O1324677   5.726   2.176   2.604  0.3491  0.2341  0.5520
  185POPC   O1424678   5.897   2.361   2.584 -0.7559  0.3868 -0.2942
  185POPC   O1224679   5.930   2.144   2.470 -0.1829 -0.0318 -0.0636
  185POPC   O1124680   5.934   2.148   2.727  0.5880  0.0490 -0.1450
  185POPC    C124681   5.912   2.009   2.751 -0.2579  0.0998 -0.6106
  185POPC    HA24682   6.006   1.964   2.790 -0.4850 -0.5876 -0.8386
  185POPC    HB24683   5.900   1.950   2.657 -0.0999 -1.9147  0.5901
  185POPC    C224684   5.783   1.977   2.829 -0.0247  0.0919 -0.2262
  185POPC    HS24685   5.693   2.019   2.779 -0.4311 -0.6627 -0.1448
  185POPC   O2124686   5.794   2.039   2.957 -0.3287  0.2003 -0.2523
  185POPC   C2124687   5.676   2.060   3.015 -0.1455  0.3254  0.0821
  185POPC   O2224688   5.565   2.048   2.965  0.1658 -0.5568 -0.3912
  185POPC   C2224689   5.698   2.089   3.162  0.2885  0.1565  0.0498
  185POPC   H2R24690   5.605   2.109   3.220  1.9778  0.4149  2.7862
  185POPC   H2S24691   5.762   2.180   3.166 -0.2885  0.6030 -0.9982
  185POPC    C324692   5.753   1.826   2.842  0.1953  0.0720  0.0678
  185POPC    HX24693   5.752   1.781   2.740  1.3863 -0.2012  0.1752
  185POPC    HY24694   5.654   1.818   2.892 -0.4433  2.3402 -0.7704
  185POPC   O3124695   5.853   1.763   2.922 -0.2113  0.1104  0.6089
  185POPC   C3124696   5.826   1.656   2.997 -0.1472 -0.1434  0.2697
  185POPC   O3224697   5.721   1.595   2.992 -0.2214 -0.0004  0.0601
  185POPC   C3224698   5.943   1.620   3.087  0.1388  0.3527  0.1050
  185POPC   H2X24699   5.908   1.607   3.192  0.3846 -0.6559  0.0668
  185POPC   H2Y24700   6.020   1.699   3.085 -0.4945  1.0713  2.7126
  185POPC   C2324701   5.781   1.975   3.222  0.4229  0.0838 -0.2759
  185POPC   H3R24702   5.876   1.964   3.166  0.3562 -0.6196 -0.2583
  185POPC   H3S24703   5.722   1.881   3.212 -0.0161  0.0529  2.2196
  185POPC   C2424704   5.811   1.982   3.372 -0.0136  0.1327 -0.1888
  185POPC   H4R24705   5.718   2.004   3.428  0.8261  1.3784  0.7653
  185POPC   H4S24706   5.866   2.078   3.382  1.9565 -1.1294  1.5484
  185POPC   C2524707   5.890   1.861   3.423  0.4909  0.4228 -0.2762
  185POPC   H5R24708   5.974   1.827   3.359  0.2016 -0.1622 -0.3468
  185POPC   H5S24709   5.828   1.769   3.416 -0.4419  0.8506  1.9255
  185POPC   C2624710   5.933   1.870   3.570  0.0657  0.2776 -0.1437
  185POPC   H6R24711   5.842   1.885   3.632  1.0413 -0.6281  1.5442
  185POPC   H6S24712   6.001   1.957   3.579  0.0489  0.6345 -2.9873
  185POPC   C2724713   6.000   1.743   3.623 -0.6754  0.0193  0.1872
  185POPC   H7R24714   6.098   1.729   3.572 -0.2200  1.0482  0.7508
  185POPC   H7S24715   5.935   1.661   3.587 -1.5406  1.3239 -1.3271
  185POPC   C2824716   6.027   1.749   3.773  0.1147  0.1375  0.0446
  185POPC   H8R24717   6.070   1.653   3.809 -1.3515 -0.4537  0.2453
  185POPC   H8S24718   5.926   1.759   3.819 -0.0131  1.6619 -0.5294
  185POPC   C2924719   6.117   1.862   3.815  0.4167 -0.0854 -0.0034
  185POPC   H9124720   6.220   1.857   3.777  1.0160  0.2369  1.5773
  185POPC  C21024721   6.085   1.963   3.897 -0.0917 -0.3993  0.1870
  185POPC  H10124722   6.159   2.041   3.922 -0.7602  0.7181 -1.2390
  185POPC  C21124723   5.948   1.974   3.957 -0.0219  0.2423  0.2371
  185POPC  H11R24724   5.902   1.875   3.976  0.0704 -0.3429 -2.3575
  185POPC  H11S24725   5.892   2.029   3.879  0.0238  0.6426  0.4877
  185POPC  C21224726   5.939   2.049   4.090  0.0163  0.1944  0.2672
  185POPC  H12R24727   5.997   2.144   4.085  0.3447 -0.0314 -0.3180
  185POPC  H12S24728   5.998   1.990   4.162 -2.2178 -0.2874  1.7504
  185POPC  C21324729   5.798   2.081   4.140 -0.1236 -0.3052  0.1941
  185POPC  H13R24730   5.742   1.992   4.175  0.3488 -1.5893 -2.2042
  185POPC  H13S24731   5.736   2.130   4.061 -0.2651  1.0690  1.1378
  185POPC  C21424732   5.798   2.176   4.260 -0.2018 -0.0295 -0.0221
  185POPC  H14R24733   5.877   2.250   4.237 -0.1567  0.5195  1.8283
  185POPC  H14S24734   5.811   2.110   4.349 -1.8223 -1.0974 -0.5664
  185POPC  C21524735   5.662   2.244   4.264 -0.3839 -0.3767 -0.2925
  185POPC  H15R24736   5.587   2.164   4.249  1.8520 -2.5208 -0.2499
  185POPC  H15S24737   5.652   2.327   4.190 -0.7394  0.3356  0.5372
  185POPC  C21624738   5.638   2.304   4.403  0.2472 -0.0496 -0.3230
  185POPC  H16R24739   5.707   2.387   4.426 -1.2992  0.6967  1.7880
  185POPC  H16S24740   5.651   2.217   4.472  2.9384  0.6985  0.1495
  185POPC  C21724741   5.504   2.375   4.424  0.0972 -0.4566  0.1169
  185POPC  H17R24742   5.445   2.282   4.439  0.3939 -0.5842  0.5002
  185POPC  H17S24743   5.472   2.424   4.330 -0.2982 -0.2352  0.3675
  185POPC  C21824744   5.484   2.472   4.540 -0.0415 -0.1072 -0.2015
  185POPC  H18R24745   5.385   2.523   4.541 -0.3386 -0.6860  1.0827
  185POPC  H18S24746   5.557   2.554   4.521 -0.2969  0.0339 -0.5839
  185POPC  H18T24747   5.511   2.434   4.640 -1.6329  0.9689  0.6614
  185POPC   C3324748   5.994   1.481   3.047 -0.3989  0.0916  0.3205
  185POPC   H3X24749   6.017   1.472   2.938  1.9159  0.2147  0.7694
  185POPC   H3Y24750   5.912   1.409   3.065 -0.2983  0.1374  0.9667
  185POPC   C3424751   6.124   1.433   3.112 -0.3975 -0.2451  0.0737
  185POPC   H4X24752   6.201   1.500   3.069  0.5783  0.3367  2.6218
  185POPC   H4Y24753   6.151   1.328   3.090  1.1490 -0.1383  1.3995
  185POPC   C3524754   6.114   1.456   3.263 -0.3610  0.1657  0.0160
  185POPC   H5X24755   6.020   1.412   3.303 -0.0634 -1.4213 -0.9645
  185POPC   H5Y24756   6.124   1.562   3.295  0.1203 -0.1333  0.8722
  185POPC   C3624757   6.220   1.387   3.350 -0.2617 -0.1381 -0.3432
  185POPC   H6X24758   6.184   1.282   3.355  3.2593 -1.4743 -1.8672
  185POPC   H6Y24759   6.233   1.419   3.456  0.5725  0.9163 -0.7500
  185POPC   C3724760   6.355   1.371   3.280 -0.0492 -0.4000  0.1216
  185POPC   H7X24761   6.379   1.463   3.223  2.8634  0.5782  2.7726
  185POPC   H7Y24762   6.341   1.293   3.201 -0.4480  1.3282 -1.5557
  185POPC   C3824763   6.476   1.353   3.371 -0.0113  0.0709  0.1633
  185POPC   H8X24764   6.468   1.264   3.437 -0.7053  1.4395  1.9791
  185POPC   H8Y24765   6.476   1.438   3.443 -0.1693  1.5013 -1.4900
  185POPC   C3924766   6.609   1.348   3.297 -0.0145 -0.4515  0.1885
  185POPC   H9X24767   6.598   1.425   3.217  2.8098 -1.2955 -1.0697
  185POPC   H9Y24768   6.625   1.247   3.253  0.6728  0.6426 -2.1733
  185POPC  C31024769   6.730   1.396   3.378  0.0659 -0.3934  0.0339
  185POPC  H10X24770   6.710   1.363   3.482  1.1970  0.0212  0.3887
  185POPC  H10Y24771   6.748   1.505   3.365  0.1111 -0.4281 -0.1957
  185POPC  C31124772   6.855   1.315   3.341  0.5190  0.0737  0.5358
  185POPC  H11X24773   6.828   1.208   3.328 -1.7044  0.6155  0.5041
  185POPC  H11Y24774   6.924   1.331   3.426  0.6537 -0.3223  0.5016
  185POPC  C31224775   6.928   1.348   3.211 -0.8153 -0.2426 -0.3047
  185POPC  H12X24776   6.932   1.459   3.209 -1.8292 -0.2298 -1.9675
  185POPC  H12Y24777   6.876   1.318   3.117 -0.8133  0.9627 -0.6993
  185POPC  C31324778   7.064   1.278   3.221 -0.5711  0.3532  0.6585
  185POPC  H13X24779   7.103   1.272   3.324  1.1047 -1.3788 -0.0420
  185POPC  H13Y24780   7.131   1.341   3.160 -0.3146  1.3021  1.9117
  185POPC  C31424781   7.064   1.134   3.169  0.2456  0.5961 -0.0305
  185POPC  H14X24782   7.015   1.148   3.070  0.4580  2.0558  0.0707
  185POPC  H14Y24783   6.999   1.076   3.239  0.2707  0.3249 -0.2295
  185POPC  C31524784   7.206   1.080   3.149 -0.0825 -0.2937  0.0142
  185POPC  H15X24785   7.268   1.082   3.241  0.5583  1.3294 -0.4430
  185POPC  H15Y24786   7.251   1.139   3.067 -0.8944  1.4792  0.8026
  185POPC  C31624787   7.204   0.938   3.092 -0.4998 -0.2078 -0.1855
  185POPC  H16X24788   7.122   0.932   3.016 -2.0462  2.0569  1.2397
  185POPC  H16Y24789   7.192   0.867   3.176  0.8414  0.7985  0.8938
  185POPC  H16Z24790   7.297   0.914   3.037 -1.0295 -3.4965  0.2681
  186POPC     N24791   7.864   1.344   2.290  0.2079 -0.2013 -0.2765
  186POPC   C1224792   7.798   1.275   2.408 -0.2242  0.1016 -0.3387
  186POPC  H12A24796   7.878   1.241   2.472 -0.3575 -2.6603 -1.5437
  186POPC  H12B24797   7.753   1.188   2.362  2.8503 -0.7762 -1.8892
  186POPC   C1324793   7.759   1.427   2.220  0.4418  0.3544  0.0377
  186POPC  H13A24798   7.734   1.514   2.279  0.3000 -1.1512  2.2669
  186POPC  H13B24799   7.786   1.461   2.121 -3.2221 -2.9428 -2.2020
  186POPC  H13C24800   7.668   1.371   2.211  1.7369 -1.7264 -0.4844
  186POPC   C1424794   0.005   1.440   2.344 -0.2413  0.5091 -0.6061
  186POPC  H14A24801   0.052   1.499   2.266 -0.4038 -0.8972 -1.7853
  186POPC  H14B24802   7.915   1.511   2.407 -0.2680  0.2404 -0.2888
  186POPC  H14C24803   0.075   1.380   2.399 -2.1219 -1.3364 -0.1706
  186POPC   C1524795   7.932   1.245   2.198  0.1861  0.1667 -0.6891
  186POPC  H15A24804   0.047   1.185   2.245  0.2194  0.6611 -0.0426
  186POPC  H15B24805   0.027   1.304   2.127  2.6194  1.3760  2.1202
  186POPC  H15C24806   7.862   1.178   2.152  1.0726 -1.3689  0.1601
  186POPC   C1124807   7.695   1.344   2.497 -0.1363 -0.0384 -0.1291
  186POPC  H11A24808   7.672   1.281   2.586 -0.9646  2.0884  1.2165
  186POPC  H11B24809   7.600   1.352   2.441  0.6588 -3.4896 -2.1225
  186POPC     P24810   7.630   1.586   2.552  0.1526 -0.1424  0.1061
  186POPC   O1324811   7.510   1.527   2.615 -0.0832  0.1021 -0.1109
  186POPC   O1424812   7.601   1.643   2.418  0.1475 -0.5653 -0.0745
  186POPC   O1224813   7.742   1.473   2.539  0.1122 -0.1702  0.0022
  186POPC   O1124814   7.685   1.692   2.659  0.1395 -0.1428  0.1137
  186POPC    C124815   7.827   1.686   2.677  0.1089 -0.6146  0.2101
  186POPC    HA24816   7.862   1.791   2.690  3.4655 -1.8101  1.3969
  186POPC    HB24817   7.876   1.654   2.583 -1.9442  0.3036 -1.1934
  186POPC    C224818   7.870   1.587   2.787  0.2817 -0.7719  0.0015
  186POPC    HS24819   7.862   1.483   2.751  0.2433  0.3413 -3.3656
  186POPC   O2124820   7.793   1.617   2.904  0.2696 -0.2119 -0.1495
  186POPC   C2124821   7.780   1.511   2.984 -0.3494 -0.1315 -0.1402
  186POPC   O2224822   7.820   1.399   2.955  0.1063 -0.0191  0.0410
  186POPC   C2224823   7.720   1.559   3.115  0.2438  0.2057  0.0078
  186POPC   H2R24824   7.621   1.604   3.094  0.6675  0.0207 -2.5719
  186POPC   H2S24825   7.779   1.640   3.164  1.6499 -0.2557 -0.8938
  186POPC    C324826   0.059   1.600   2.814  0.4967 -0.2560 -1.1837
  186POPC    HX24827   0.112   1.574   2.720  0.7648 -2.4221 -0.4576
  186POPC    HY24828   0.088   1.537   2.901 -1.9669 -0.8138 -0.7221
  186POPC   O3124829   0.087   1.736   2.850 -0.4086 -0.3457 -0.1013
  186POPC   C3124830   0.134   1.765   2.971 -0.3673 -0.3767 -0.1097
  186POPC   O3224831   0.166   1.682   3.054 -0.3464 -0.3751 -0.1163
  186POPC   C3224832   0.118   1.914   2.997  0.1887 -0.3352 -0.0108
  186POPC   H2X24833   0.028   1.936   2.936 -0.0616 -0.4600  0.3154
  186POPC   H2Y24834   0.202   1.972   2.952 -0.6062  1.9159  1.3053
  186POPC   C2324835   7.707   1.440   3.209 -0.2667 -0.0181 -0.3506
  186POPC   H3R24836   7.806   1.399   3.239  1.2954  1.7828 -2.9000
  186POPC   H3S24837   7.644   1.364   3.157 -1.0815  0.3117  0.1375
  186POPC   C2424838   7.622   1.463   3.334  0.0692 -0.0183 -0.1223
  186POPC   H4R24839   7.518   1.491   3.306 -0.9259 -0.2891  3.0079
  186POPC   H4S24840   7.674   1.541   3.394  0.6641  1.5629 -2.6111
  186POPC   C2524841   7.619   1.339   3.424  0.2415 -0.2558 -0.4431
  186POPC   H5R24842   7.628   1.389   3.523 -0.7535 -0.4590 -0.2438
  186POPC   H5S24843   7.713   1.280   3.416  0.8937  1.0612 -2.8278
  186POPC   C2624844   7.492   1.259   3.398  0.2747 -0.4403 -0.0480
  186POPC   H6R24845   7.496   1.233   3.290 -0.5992  1.0140 -0.4534
  186POPC   H6S24846   7.404   1.326   3.412  0.2934 -0.8489  2.2256
  186POPC   C2724847   7.453   1.136   3.481 -0.3213 -0.5095 -0.4264
  186POPC   H7R24848   7.535   1.063   3.492  0.4507  0.7312  2.4869
  186POPC   H7S24849   7.373   1.074   3.435 -0.8776  0.4433 -0.7635
  186POPC   C2824850   7.413   1.180   3.622 -0.0599  0.0510 -0.5235
  186POPC   H8R24851   7.340   1.262   3.616 -0.1115 -0.0815 -1.8177
  186POPC   H8S24852   7.504   1.216   3.675 -0.6637  0.7919  0.0067
  186POPC   C2924853   7.354   1.069   3.704 -0.0452  0.6539  0.3088
  186POPC   H9124854   7.428   1.006   3.755 -3.9351 -0.3250  5.1306
  186POPC  C21024855   7.223   1.046   3.723  0.0347  0.5921  0.7899
  186POPC  H10124856   7.193   0.978   3.804 -1.5090 -1.2625 -1.2934
  186POPC  C21124857   7.113   1.132   3.667 -0.2136  0.1428  0.5897
  186POPC  H11R24858   7.025   1.074   3.631 -0.0096 -0.4764  1.0820
  186POPC  H11S24859   7.138   1.199   3.583  1.2744 -0.2908  0.6731
  186POPC  C21224860   7.061   1.230   3.772  0.1155  0.4477  0.4694
  186POPC  H12R24861   6.999   1.302   3.715  0.4588 -1.7192 -2.7772
  186POPC  H12S24862   7.156   1.271   3.811  0.7834 -0.9253  0.3090
  186POPC  C21324863   6.996   1.160   3.891  0.2139  0.0198  0.2740
  186POPC  H13R24864   7.064   1.095   3.950 -0.3090 -0.9515 -0.1930
  186POPC  H13S24865   6.920   1.090   3.849 -1.5104  2.3949 -0.7023
  186POPC  C21424866   6.914   1.246   3.989  0.2712  0.5119 -0.1085
  186POPC  H14R24867   6.867   1.173   4.058 -0.3939 -0.6599 -1.7515
  186POPC  H14S24868   6.836   1.299   3.930  1.1920 -0.0433 -1.8873
  186POPC  C21524869   6.993   1.351   4.067  1.0546 -0.1580  0.0098
  186POPC  H15R24870   6.999   1.443   4.005  0.5830  0.4017  0.7743
  186POPC  H15S24871   7.092   1.308   4.094  1.0857  0.0429  0.2278
  186POPC  C21624872   6.908   1.380   4.191  0.2319  0.1686 -0.6221
  186POPC  H16R24873   6.891   1.297   4.263  1.9640 -0.8745 -1.3771
  186POPC  H16S24874   6.806   1.409   4.160 -0.2932  0.6289  1.4534
  186POPC  C21724875   6.955   1.494   4.283 -0.2224  0.1091 -0.3138
  186POPC  H17R24876   6.884   1.500   4.368  0.5470 -1.4572  0.4760
  186POPC  H17S24877   6.945   1.588   4.226 -0.3960 -1.8500 -3.6732
  186POPC  C21824878   7.094   1.475   4.344 -0.1132 -0.0079 -0.5942
  186POPC  H18R24879   7.171   1.444   4.270  1.9003  0.8362  1.0647
  186POPC  H18S24880   7.095   1.416   4.438 -1.5379 -0.6795 -0.9954
  186POPC  H18T24881   7.126   1.577   4.375 -0.9576  0.2305 -0.4918
  186POPC   C3324882   0.105   1.951   3.145  0.1752  0.6774 -0.2553
  186POPC   H3X24883   0.094   2.060   3.157 -0.7186  0.5117  0.5319
  186POPC   H3Y24884   0.192   1.906   3.198  1.7079  1.2128 -2.2712
  186POPC   C3424885   7.940   1.890   3.206  0.1564  0.5870 -0.2975
  186POPC   H4X24886   7.951   1.781   3.192 -1.8602  0.3531 -0.2774
  186POPC   H4Y24887   7.844   1.922   3.160 -0.0215 -0.9773 -1.0246
  186POPC   C3524888   7.913   1.909   3.355  0.4229 -0.0488 -0.1702
  186POPC   H5X24889   7.924   2.017   3.378  2.8026 -0.4604  0.7754
  186POPC   H5Y24890   0.034   1.872   3.420 -0.0649  0.3612  0.7527
  186POPC   C3624891   7.779   1.852   3.401  0.2614  0.5859  0.1541
  186POPC   H6X24892   7.758   1.754   3.352 -0.8245  1.4023 -1.0330
  186POPC   H6Y24893   7.707   1.919   3.350 -1.0097 -0.7145  0.2089
  186POPC   C3724894   7.772   1.841   3.554 -0.0400  0.5510  0.1384
  186POPC   H7X24895   7.819   1.928   3.605  0.3331  0.0833  0.5878
  186POPC   H7Y24896   7.825   1.749   3.586 -1.7181 -1.9626 -3.8595
  186POPC   C3824897   7.625   1.831   3.597 -0.1671 -0.6121 -0.5347
  186POPC   H8X24898   7.557   1.814   3.512 -2.8687 -1.7847  1.7871
  186POPC   H8Y24899   7.595   1.924   3.650  3.6519  1.1300 -1.2180
  186POPC   C3924900   7.599   1.727   3.706  0.1605 -0.1490 -0.0031
  186POPC   H9X24901   7.677   1.731   3.785 -1.0235  0.0914  1.1663
  186POPC   H9Y24902   7.600   1.625   3.660  1.4575 -0.1881  0.1023
  186POPC  C31024903   7.468   1.765   3.775  0.3008 -0.5518  0.4859
  186POPC  H10X24904   7.380   1.767   3.707  1.4696 -3.0075 -1.1795
  186POPC  H10Y24905   7.487   1.865   3.819  1.4100 -0.8300  0.6409
  186POPC  C31124906   7.429   1.675   3.893 -0.4158 -0.5040  0.2877
  186POPC  H11X24907   7.328   1.716   3.917  0.8772  2.5556  0.7677
  186POPC  H11Y24908   7.490   1.707   3.980 -0.6628  0.0604  0.2572
  186POPC  C31224909   7.438   1.525   3.866 -0.6041 -0.3849 -0.4533
  186POPC  H12X24910   7.530   1.496   3.811 -0.0491 -0.9404  0.7382
  186POPC  H12Y24911   7.353   1.505   3.797 -1.3322  0.3120  0.2319
  186POPC  C31324912   7.439   1.445   3.997  0.1648  0.0713 -0.1815
  186POPC  H13X24913   7.343   1.462   4.049 -0.2038 -1.3140 -0.3916
  186POPC  H13Y24914   7.523   1.485   4.058  0.0779 -1.2777  0.8239
  186POPC  C31424915   7.447   1.295   3.971 -0.1148  0.0716 -0.2700
  186POPC  H14X24916   7.540   1.271   3.915 -0.0284 -1.8520  0.6480
  186POPC  H14Y24917   7.372   1.256   3.899 -1.4385  1.3542  0.4089
  186POPC  C31524918   7.441   1.211   4.098 -0.0920 -0.1980 -0.4453
  186POPC  H15X24919   7.391   1.256   4.186  0.9695  0.2343 -0.0578
  186POPC  H15Y24920   7.544   1.179   4.126 -0.0504 -0.8556 -1.3405
  186POPC  C31624921   7.357   1.087   4.065 -0.4584  0.0569 -0.4697
  186POPC  H16X24922   7.253   1.118   4.041 -1.2406 -0.3989  2.1373
  186POPC  H16Y24923   7.348   1.015   4.149  0.9319 -1.4646 -1.6083
  186POPC  H16Z24924   7.399   1.038   3.975  0.1401  1.5104 -1.0011
  187POPC     N24925   4.626   7.487   2.363  0.4905 -0.1673  0.0728
  187POPC   C1224926   4.575   7.415   2.486 -0.2126 -0.1416 -0.2027
  187POPC  H12A24930   4.501   7.479   2.531 -0.9243 -1.1588  0.0974
  187POPC  H12B24931   4.656   7.404   2.556 -0.8692 -0.5387  0.4989
  187POPC   C1324927   4.672   7.625   2.404 -0.0115 -0.0763  0.3255
  187POPC  H13A24932   4.607   7.660   2.483  1.6455  0.6663  1.3757
  187POPC  H13B24933   4.769   7.613   2.451  0.4651  2.8726  0.1770
  187POPC  H13C24934   4.688   7.701   2.330  3.4764 -3.6846 -2.8107
  187POPC   C1424928   4.736   7.403   2.302  0.3956 -0.1216 -0.1608
  187POPC  H14A24935   4.691   7.322   2.245  0.9038  0.2534 -1.1066
  187POPC  H14B24936   4.790   7.468   2.235 -0.0676  0.4595  0.0326
  187POPC  H14C24937   4.799   7.377   2.386 -0.2664  1.1046  0.7323
  187POPC   C1524929   4.516   7.507   2.263  0.3029 -0.5840  0.1916
  187POPC  H15A24938   4.571   7.560   2.186  2.8227 -0.7744  1.7972
  187POPC  H15B24939   4.449   7.578   2.310  0.4131 -0.9340  0.8782
  187POPC  H15C24940   4.479   7.416   2.219 -1.1181  0.0100  0.1263
  187POPC   C1124941   4.525   7.271   2.469 -0.4596  0.0037 -0.7087
  187POPC  H11A24942   4.479   7.255   2.568 -1.9194 -1.8387 -1.6592
  187POPC  H11B24943   4.607   7.198   2.455 -0.7305 -0.1495 -1.5411
  187POPC     P24944   4.369   7.103   2.369  0.1177  0.0106 -0.3515
  187POPC   O1324945   4.481   7.013   2.336  0.0461 -0.2585  0.1349
  187POPC   O1424946   4.255   7.102   2.275  0.2498  1.0027 -0.5240
  187POPC   O1224947   4.425   7.253   2.369 -0.5109  0.2477 -0.7023
  187POPC   O1124948   4.310   7.068   2.513  0.4542  0.5166 -0.0897
  187POPC    C124949   4.283   6.929   2.535  0.1882  0.5834  0.0167
  187POPC    HA24950   4.308   6.903   2.640 -0.4686 -0.5360 -0.0940
  187POPC    HB24951   4.352   6.860   2.482  0.2372 -0.8573  1.9132
  187POPC    C224952   4.134   6.894   2.516  0.2648  0.3587 -0.1733
  187POPC    HS24953   4.101   6.930   2.416 -1.6750  1.2478  0.7671
  187POPC   O2124954   4.071   6.979   2.612 -0.0940 -0.2280  0.1128
  187POPC   C2124955   3.945   7.004   2.578  0.0974  0.0056 -0.4292
  187POPC   O2224956   3.879   6.953   2.488 -0.2139 -0.3064 -0.0234
  187POPC   C2224957   3.887   7.108   2.673  0.6193 -0.1055  0.0059
  187POPC   H2R24958   3.795   7.155   2.633  0.0009  0.1413  1.6602
  187POPC   H2S24959   3.961   7.187   2.699  2.0657 -1.9136  1.5833
  187POPC    C324960   4.105   6.743   2.521  0.0779  0.3824 -0.5463
  187POPC    HX24961   4.173   6.693   2.450 -0.9714 -2.4201  0.3636
  187POPC    HY24962   4.002   6.720   2.485 -0.9781 -1.0256  3.0483
  187POPC   O3124963   4.136   6.693   2.652 -0.1242 -0.1619 -0.7052
  187POPC   C3124964   4.039   6.682   2.742  0.1243 -0.8625 -0.5211
  187POPC   O3224965   3.920   6.694   2.717  0.0653 -0.3019  0.0010
  187POPC   C3224966   4.095   6.651   2.880 -0.2340  0.2234 -0.1222
  187POPC   H2X24967   4.125   6.749   2.922  0.0352 -0.4457  1.2943
  187POPC   H2Y24968   4.174   6.575   2.861  0.1520  0.9762 -1.5714
  187POPC   C2324969   3.871   7.046   2.812  0.6321 -0.1475 -0.0116
  187POPC   H3R24970   3.972   7.015   2.844  1.3517  1.0162 -1.1288
  187POPC   H3S24971   3.804   6.957   2.810 -0.2500  0.4833  0.8076
  187POPC   C2424972   3.813   7.138   2.920  0.0953 -0.3116 -0.1550
  187POPC   H4R24973   3.714   7.175   2.884  1.7742  0.9499 -3.7472
  187POPC   H4S24974   3.876   7.229   2.935 -3.1816  2.4136 -2.0922
  187POPC   C2524975   3.811   7.074   3.059 -0.0205  0.3272  0.1433
  187POPC   H5R24976   3.921   7.060   3.070 -0.3950 -3.1690  0.1015
  187POPC   H5S24977   3.756   6.978   3.054 -2.4116  1.6540  0.3055
  187POPC   C2624978   3.751   7.152   3.176  0.1965 -0.3502  0.7110
  187POPC   H6R24979   3.755   7.085   3.264 -0.8683  1.8930  2.5068
  187POPC   H6S24980   3.646   7.172   3.146  0.9559 -1.0695 -2.7478
  187POPC   C2724981   3.843   7.266   3.221  0.4531 -0.1114 -0.3964
  187POPC   H7R24982   3.874   7.327   3.134  0.2674 -1.0783 -1.1507
  187POPC   H7S24983   3.942   7.226   3.252  0.0866 -1.0320 -0.3772
  187POPC   C2824984   3.796   7.366   3.327  0.8047  0.2744 -0.6039
  187POPC   H8R24985   3.783   7.304   3.418  1.4325 -0.2210 -0.8393
  187POPC   H8S24986   3.699   7.408   3.296 -0.6281 -3.5152 -1.5062
  187POPC   C2924987   3.899   7.473   3.348  0.9838  0.2331 -1.2466
  187POPC   H9124988   3.991   7.431   3.393 -0.2253  1.5139  2.6684
  187POPC  C21024989   3.893   7.604   3.320  0.1864  0.5519  0.3406
  187POPC  H10124990   3.974   7.673   3.350  1.0969 -0.6191  0.6435
  187POPC  C21124991   3.778   7.657   3.239 -0.1283 -0.2400  0.2713
  187POPC  H11R24992   3.778   7.767   3.249 -3.0152  0.0204 -2.2013
  187POPC  H11S24993   3.684   7.627   3.290  0.1281  3.2070  2.8960
  187POPC  C21224994   3.769   7.627   3.089  0.0144 -0.1923  0.2530
  187POPC  H12R24995   3.693   7.698   3.050  2.0070  0.5030 -2.4977
  187POPC  H12S24996   3.728   7.524   3.091  0.5194 -0.3976 -0.0049
  187POPC  C21324997   3.899   7.643   3.011  0.1120 -0.6839  0.3121
  187POPC  H13R24998   3.971   7.560   3.028  2.7040  0.7862 -2.8964
  187POPC  H13S24999   3.941   7.738   3.051 -0.9192  1.6474 -3.8985
  187POPC  C21425000   3.890   7.642   2.859 -0.1926 -0.3278  0.3269
  187POPC  H14R25001   3.872   7.538   2.826  0.2330 -0.1460 -0.5089
  187POPC  H14S25002   3.991   7.662   2.817  1.1207 -1.3953  2.8615
  187POPC  C21525003   3.790   7.743   2.802 -0.0034 -0.1868  0.2405
  187POPC  H15R25004   3.817   7.848   2.826  0.7517 -0.2676 -0.2466
  187POPC  H15S25005   3.683   7.730   2.830 -0.3274  0.9530 -0.4464
  187POPC  C21625006   3.802   7.746   2.649  0.0538  0.9011  0.2664
  187POPC  H16R25007   3.908   7.756   2.617  0.1968 -1.4823 -0.1017
  187POPC  H16S25008   3.748   7.828   2.598 -2.3408  0.1399  1.5093
  187POPC  C21725009   3.752   7.619   2.580  0.3452  0.6701  0.4792
  187POPC  H17R25010   3.672   7.575   2.642  1.0930 -2.5698 -0.7579
  187POPC  H17S25011   3.829   7.539   2.574  1.8068  2.1210 -0.4912
  187POPC  C21825012   3.691   7.640   2.441  0.3698 -0.6231  0.2685
  187POPC  H18R25013   3.682   7.545   2.384  1.6816 -1.3598  1.2377
  187POPC  H18S25014   3.761   7.698   2.377 -1.2006  0.7817 -0.2153
  187POPC  H18T25015   3.599   7.701   2.450  0.5889 -0.4794  1.7747
  187POPC   C3325016   3.992   6.583   2.971 -0.0929  0.0587 -0.0858
  187POPC   H3X25017   3.995   6.472   2.963  0.0150  0.1537 -1.4345
  187POPC   H3Y25018   3.894   6.623   2.937  1.2267  2.0224 -1.6753
  187POPC   C3425019   4.007   6.634   3.115 -0.1048 -0.4019  0.0809
  187POPC   H4X25020   4.111   6.619   3.150 -0.4350  3.2100  2.9575
  187POPC   H4Y25021   3.935   6.578   3.178 -3.0086  2.7055 -0.2947
  187POPC   C3525022   3.964   6.778   3.145  0.6745 -0.0927 -0.2845
  187POPC   H5X25023   3.868   6.805   3.097  2.1970  1.9901 -2.2673
  187POPC   H5Y25024   4.040   6.840   3.093  1.4356 -1.3577 -0.7035
  187POPC   C3625025   3.964   6.826   3.290 -0.3145  0.5573 -0.4982
  187POPC   H6X25026   3.879   6.777   3.341 -1.1978  2.6001  0.0653
  187POPC   H6Y25027   3.947   6.936   3.284  0.1260  0.7181  1.0484
  187POPC   C3725028   4.096   6.804   3.363 -0.6454 -0.7938 -0.2958
  187POPC   H7X25029   4.174   6.856   3.303 -1.6740 -1.4202 -2.2161
  187POPC   H7Y25030   4.117   6.695   3.363 -1.8693 -1.0481  1.3106
  187POPC   C3825031   4.105   6.854   3.508  0.4042 -0.3819 -0.5003
  187POPC   H8X25032   4.205   6.846   3.555 -0.2573  0.3128  1.0429
  187POPC   H8Y25033   4.041   6.787   3.568  0.5201  0.0782  0.1368
  187POPC   C3925034   4.067   7.002   3.520  0.4224 -0.4225  0.0522
  187POPC   H9X25035   3.959   7.009   3.496  0.6094 -0.3198 -0.7759
  187POPC   H9Y25036   4.124   7.064   3.448  0.4985 -2.5423 -1.7480
  187POPC  C31025037   4.086   7.058   3.661  0.1310 -0.1437 -0.0177
  187POPC  H10X25038   4.193   7.045   3.690  0.5625 -0.4120 -1.6728
  187POPC  H10Y25039   4.027   7.001   3.735 -2.3011 -2.6246 -3.6759
  187POPC  C31125040   4.041   7.204   3.673  0.2123 -0.1559  0.4599
  187POPC  H11X25041   3.931   7.201   3.658  0.1629  1.5888  0.4458
  187POPC  H11Y25042   4.082   7.255   3.583  1.6509 -2.5965 -0.3316
  187POPC  C31225043   4.086   7.291   3.791 -0.1373 -0.3412  0.7306
  187POPC  H12X25044   4.196   7.286   3.808 -0.3315 -1.6090  1.6690
  187POPC  H12Y25045   4.035   7.243   3.877 -0.4684 -1.1030  0.1200
  187POPC  C31325046   4.047   7.437   3.766  0.0637 -0.2558  0.9061
  187POPC  H13X25047   4.098   7.481   3.677  0.2959 -0.2272  1.0523
  187POPC  H13Y25048   4.082   7.488   3.858 -1.7881 -0.1148  1.5419
  187POPC  C31425049   3.898   7.461   3.741  0.1088  0.3691  1.2483
  187POPC  H14X25050   3.838   7.418   3.824 -0.8248  1.7247  1.2967
  187POPC  H14Y25051   3.868   7.415   3.645 -0.3212 -0.5960  1.8353
  187POPC  C31525052   3.859   7.607   3.715 -0.1108  0.1686  0.4338
  187POPC  H15X25053   3.912   7.650   3.628 -0.7188 -1.2463 -0.6561
  187POPC  H15Y25054   3.878   7.661   3.810 -0.5743  2.0451 -0.5200
  187POPC  C31625055   3.712   7.625   3.680  0.2367  0.7623 -0.7395
  187POPC  H16X25056   3.690   7.734   3.678 -1.8727  0.4443  1.8322
  187POPC  H16Y25057   3.654   7.574   3.760 -0.9577  0.3376 -1.8489
  187POPC  H16Z25058   3.681   7.585   3.581  0.4166 -2.7788  0.5381
  188POPC     N25059   3.213   5.106   1.449 -0.4733 -0.0568  0.4696
  188POPC   C1225060   3.109   5.010   1.503 -0.0286 -0.5858  0.3871
  188POPC  H12A25064   3.058   4.978   1.413  0.5122 -0.5645  0.0687
  188POPC  H12B25065   3.030   5.061   1.556  0.4902  0.9297 -0.2523
  188POPC   C1325061   3.139   5.228   1.398 -0.0572 -0.4411 -1.0979
  188POPC  H13A25066   3.096   5.291   1.475  0.2717  0.8566 -1.9708
  188POPC  H13B25067   3.216   5.287   1.351 -1.9041  1.0451 -2.3115
  188POPC  H13C25068   3.068   5.203   1.321 -1.2177 -1.7108  0.3356
  188POPC   C1425062   3.323   5.141   1.545 -0.1839  0.0117  0.1125
  188POPC  H14A25069   3.284   5.205   1.622  0.8619  1.4079 -0.4815
  188POPC  H14B25070   3.371   5.050   1.578  0.4271 -0.4694 -1.9979
  188POPC  H14C25071   3.400   5.195   1.491 -2.4172 -0.7766 -4.0468
  188POPC   C1525063   3.274   5.044   1.325  0.3193  0.8746  0.3890
  188POPC  H15A25072   3.313   4.949   1.358 -0.6714  0.8870  1.6192
  188POPC  H15B25073   3.349   5.115   1.294  1.2581  0.3959  1.5211
  188POPC  H15C25074   3.196   5.027   1.252  1.1317 -0.6038 -0.1513
  188POPC   C1125075   3.155   4.896   1.594 -0.1726 -0.8050  0.1834
  188POPC  H11A25076   3.244   4.848   1.547 -1.7766 -1.2880 -2.5231
  188POPC  H11B25077   3.070   4.824   1.597 -0.4866 -0.3603  2.6487
  188POPC     P25078   3.086   4.936   1.841 -0.0899 -0.4073 -0.2300
  188POPC   O1325079   2.973   4.847   1.808 -0.4169 -0.1046  0.0735
  188POPC   O1425080   3.055   5.076   1.879  0.5470 -0.2389 -0.3253
  188POPC   O1225081   3.194   4.941   1.723 -0.0568  0.1336 -0.1781
  188POPC   O1125082   3.169   4.868   1.959 -0.3008 -0.0445  0.1325
  188POPC    C125083   3.296   4.906   2.014 -0.1154  0.1383 -0.4199
  188POPC    HA25084   3.336   4.970   1.933  0.0074  1.5491  0.7453
  188POPC    HB25085   3.359   4.817   2.036 -0.0930 -0.1073 -1.4258
  188POPC    C225086   3.291   4.975   2.151 -0.0815 -0.9047  0.1134
  188POPC    HS25087   3.262   5.082   2.136  0.9314 -0.6582 -0.1093
  188POPC   O2125088   3.415   4.971   2.222  0.1763  0.5148 -0.2436
  188POPC   C2125089   3.427   5.068   2.313 -0.3654 -0.4242  0.8510
  188POPC   O2225090   3.347   5.158   2.330 -0.0253  0.0331  0.0819
  188POPC   C2225091   3.563   5.069   2.382  0.4081 -0.1896 -0.6355
  188POPC   H2R25092   3.642   5.078   2.305  1.7293 -2.7019  0.3777
  188POPC   H2S25093   3.572   4.975   2.440 -3.2378 -0.0365  0.2900
  188POPC    C325094   3.186   4.900   2.234 -0.1408 -0.5744  0.3386
  188POPC    HX25095   3.218   4.794   2.243  2.4233 -0.0083 -1.6427
  188POPC    HY25096   3.089   4.902   2.180  0.1647 -4.6799 -0.4989
  188POPC   O3125097   3.165   4.962   2.361 -0.1021 -0.1458  0.1352
  188POPC   C3125098   3.043   4.991   2.408  0.0389  0.0292  0.3943
  188POPC   O3225099   2.938   4.970   2.350  0.2879  0.0849 -0.0810
  188POPC   C3225100   3.058   5.045   2.550  0.8217 -0.1477  0.3838
  188POPC   H2X25101   2.953   5.064   2.581 -0.1371  0.5088 -3.0075
  188POPC   H2Y25102   3.106   5.145   2.551  1.9681 -0.6620 -1.1366
  188POPC   C2325103   3.568   5.201   2.459 -0.6973 -0.1871 -0.5547
  188POPC   H3R25104   3.524   5.282   2.396  1.2346  2.5357  1.4995
  188POPC   H3S25105   3.675   5.228   2.472 -0.8829  0.8025 -1.0263
  188POPC   C2425106   3.506   5.191   2.599 -0.1792 -0.1298 -0.3201
  188POPC   H4R25107   3.396   5.199   2.589 -0.1883  0.2106  0.0909
  188POPC   H4S25108   3.536   5.279   2.659 -3.1366  0.0306  0.9597
  188POPC   C2525109   3.540   5.063   2.676  0.1481  0.0395 -0.1840
  188POPC   H5R25110   3.650   5.052   2.686 -0.0875 -2.6054 -0.2676
  188POPC   H5S25111   3.489   4.971   2.641 -0.1388  0.2033 -0.2025
  188POPC   C2625112   3.505   5.067   2.825  0.3353 -0.3641 -0.1305
  188POPC   H6R25113   3.395   5.058   2.838  0.3790 -0.0934  0.4439
  188POPC   H6S25114   3.550   5.161   2.864 -0.8989  0.0730  0.2648
  188POPC   C2725115   3.580   4.962   2.908  0.2409 -0.0971  0.2959
  188POPC   H7R25116   3.688   4.985   2.898 -0.6237  4.1941 -0.3752
  188POPC   H7S25117   3.563   4.870   2.848  0.6930 -0.2310  0.3715
  188POPC   C2825118   3.513   4.943   3.044  0.1800  0.3814  0.3334
  188POPC   H8R25119   3.418   4.887   3.040  0.1213  0.4296  1.0258
  188POPC   H8S25120   3.494   5.047   3.078 -2.5099 -0.0177  0.1467
  188POPC   C2925121   3.621   4.872   3.121  0.5238  0.4751 -0.0582
  188POPC   H9125122   3.663   4.787   3.065  1.9257  0.1093  1.5082
  188POPC  C21025123   3.659   4.899   3.247  0.2416 -0.0080  0.1326
  188POPC  H10125124   3.741   4.836   3.284 -1.6413 -1.6542  1.6268
  188POPC  C21125125   3.598   5.009   3.328 -0.0048 -0.1591  0.1514
  188POPC  H11R25126   3.501   4.974   3.371 -0.6230  0.9883 -0.2833
  188POPC  H11S25127   3.565   5.091   3.260  1.1810 -1.0962 -1.5878
  188POPC  C21225128   3.700   5.064   3.428 -0.0684  0.0764  0.0871
  188POPC  H12R25129   3.788   5.101   3.370 -0.6291 -0.1667 -0.9412
  188POPC  H12S25130   3.722   4.975   3.491  0.0614  0.8461  1.1261
  188POPC  C21325131   3.655   5.173   3.524 -0.1824  0.1617 -0.0634
  188POPC  H13R25132   3.622   5.267   3.473 -1.1418 -0.7327 -1.1106
  188POPC  H13S25133   3.738   5.186   3.597  0.1311  0.2457 -0.4343
  188POPC  C21425134   3.534   5.137   3.611  0.0157  0.1503  0.2070
  188POPC  H14R25135   3.561   5.033   3.639  0.1069 -0.3861 -1.8126
  188POPC  H14S25136   3.446   5.147   3.545  1.9723  0.3847 -2.4914
  188POPC  C21525137   3.529   5.206   3.748  0.2371 -0.1565  0.3712
  188POPC  H15R25138   3.628   5.190   3.795  1.8161  0.5985 -2.5639
  188POPC  H15S25139   3.458   5.136   3.799  1.5747 -2.3992 -0.7508
  188POPC  C21625140   3.484   5.352   3.742  0.3580 -0.1363 -0.0309
  188POPC  H16R25141   3.379   5.359   3.704  0.6811 -1.1756 -1.1585
  188POPC  H16S25142   3.539   5.412   3.666  0.6825  0.3219  0.5723
  188POPC  C21725143   3.491   5.425   3.876  0.8129 -0.1660 -0.0381
  188POPC  H17R25144   3.599   5.421   3.902  0.2585 -0.6572  2.2966
  188POPC  H17S25145   3.425   5.375   3.950 -0.5253  0.6861 -0.6308
  188POPC  C21825146   3.449   5.571   3.865  0.4170 -0.2682  0.1086
  188POPC  H18R25147   3.505   5.627   3.787 -0.2088 -0.1422 -0.2511
  188POPC  H18S25148   3.454   5.623   3.963 -2.8847 -2.6451  1.6586
  188POPC  H18T25149   3.341   5.574   3.840  0.5604 -0.6437 -0.5501
  188POPC   C3325150   3.128   4.953   2.650  0.1734 -0.7082  0.3323
  188POPC   H3X25151   3.232   4.988   2.665 -0.5284  2.6507 -2.0484
  188POPC   H3Y25152   3.145   4.857   2.597 -0.7106 -1.6096  1.6560
  188POPC   C3425153   3.061   4.928   2.785  0.9572  0.4601  0.9399
  188POPC   H4X25154   2.955   4.925   2.754  0.3757  0.8682  2.8035
  188POPC   H4Y25155   3.075   5.015   2.854 -0.9930  0.4640  1.3343
  188POPC   C3525156   3.105   4.794   2.843 -0.0153 -0.2651 -0.0002
  188POPC   H5X25157   3.194   4.804   2.908  0.3770  1.3021 -0.7540
  188POPC   H5Y25158   3.138   4.724   2.763  0.1681 -2.4037  1.8923
  188POPC   C3625159   2.994   4.721   2.919 -0.5589  0.0465 -0.4982
  188POPC   H6X25160   3.023   4.615   2.934  2.8413  0.7167 -1.9128
  188POPC   H6Y25161   2.896   4.701   2.869 -2.9961  0.8728  3.6689
  188POPC   C3725162   2.988   4.754   3.068 -0.1283  0.3722 -0.5509
  188POPC   H7X25163   2.930   4.847   3.086 -0.8946  0.0564 -1.3681
  188POPC   H7Y25164   3.085   4.759   3.122  1.4716  0.5741 -3.3500
  188POPC   C3825165   2.927   4.645   3.157  0.3850  0.6604  0.1574
  188POPC   H8X25166   2.999   4.563   3.177  0.2797  1.0873  2.5103
  188POPC   H8Y25167   2.838   4.595   3.114 -0.1814 -0.6407  2.7399
  188POPC   C3925168   2.876   4.707   3.288 -0.9269 -0.3725  0.1422
  188POPC   H9X25169   2.771   4.740   3.277 -0.2540  2.2233  1.2739
  188POPC   H9Y25170   2.944   4.792   3.312  1.5403 -1.9261 -1.0924
  188POPC  C31025171   2.888   4.607   3.403 -0.2325 -0.4203  0.0317
  188POPC  H10X25172   2.997   4.598   3.426 -0.3076 -0.3633  0.4153
  188POPC  H10Y25173   2.845   4.509   3.374  0.9993 -0.4669 -1.6945
  188POPC  C31125174   2.822   4.665   3.528 -0.4052 -0.2106 -0.1586
  188POPC  H11X25175   2.727   4.715   3.499  0.2472  1.1879  0.0650
  188POPC  H11Y25176   2.885   4.755   3.543 -0.5683 -0.0218 -0.6086
  188POPC  C31225177   2.809   4.585   3.658  0.0909 -0.2228 -0.1164
  188POPC  H12X25178   2.755   4.490   3.638  3.3614 -2.1870 -0.0448
  188POPC  H12Y25179   2.757   4.651   3.730 -3.4031 -2.1767 -0.7225
  188POPC  C31325180   2.942   4.537   3.716  0.2131 -0.2909 -0.4499
  188POPC  H13X25181   3.012   4.614   3.754  1.3078 -0.7776 -1.4634
  188POPC  H13Y25182   2.986   4.491   3.625 -0.8432 -0.4536 -0.8909
  188POPC  C31425183   2.937   4.416   3.811  0.5824  0.0375 -0.0068
  188POPC  H14X25184   2.874   4.439   3.899 -1.7531  0.5167 -1.7324
  188POPC  H14Y25185   3.033   4.388   3.860 -0.0358  0.2631  1.3548
  188POPC  C31525186   2.877   4.289   3.749 -0.2183  0.0712  0.6919
  188POPC  H15X25187   2.913   4.252   3.651 -1.5754 -1.6220  0.8164
  188POPC  H15Y25188   2.770   4.302   3.722 -0.8520 -2.0835  2.0515
  188POPC  C31625189   2.898   4.170   3.842 -0.3424 -0.5639 -0.0883
  188POPC  H16X25190   2.873   4.078   3.785 -0.2678  0.1283 -1.2559
  188POPC  H16Y25191   2.835   4.186   3.932 -0.6874 -1.2621 -0.2087
  188POPC  H16Z25192   2.999   4.164   3.889 -0.5385 -2.1508  0.1555
  189POPC     N25193   7.440   4.054   2.319  0.1958  0.0848  0.1867
  189POPC   C1225194   7.418   4.199   2.354 -0.0062  0.0748  0.1003
  189POPC  H12A25198   7.428   4.197   2.461  0.3024 -1.3968  0.0527
  189POPC  H12B25199   7.312   4.220   2.344 -0.3385 -1.3542  0.6080
  189POPC   C1325195   7.313   3.974   2.333  0.2760 -0.1114 -0.2003
  189POPC  H13A25200   7.231   4.025   2.284  0.8594  0.5574 -0.4923
  189POPC  H13B25201   7.331   3.880   2.281  2.1855  0.6072 -0.8534
  189POPC  H13C25202   7.298   3.944   2.435  1.5792  1.3697  0.4345
  189POPC   C1425196   7.476   4.043   2.173 -0.3245  0.0775  0.0554
  189POPC  H14A25203   7.557   4.109   2.144 -0.8525  0.3125 -0.9221
  189POPC  H14B25204   7.518   3.947   2.148  0.2941  0.3226  0.1328
  189POPC  H14C25205   7.398   4.062   2.101 -0.4195 -0.0048  0.1389
  189POPC   C1525197   7.550   3.990   2.399  0.1188 -0.1994  0.0653
  189POPC  H15A25206   7.539   4.000   2.506  2.9400 -0.7032  0.4425
  189POPC  H15B25207   7.636   4.043   2.360  1.7726 -1.5113  1.8675
  189POPC  H15C25208   7.557   3.885   2.374  0.2965 -0.2453  0.3043
  189POPC   C1125209   7.510   4.308   2.298  0.0215 -0.0846 -0.1636
  189POPC  H11A25210   7.481   4.406   2.341  0.1095  0.3631 -1.1170
  189POPC  H11B25211   7.490   4.321   2.190 -0.1924 -0.4571 -0.1721
  189POPC     P25212   7.757   4.395   2.332  0.0654 -0.1121 -0.0665
  189POPC   O1325213   7.706   4.517   2.267 -0.2106 -0.0432  0.2795
  189POPC   O1425214   7.874   4.332   2.266  0.0010 -0.2511 -0.0484
  189POPC   O1225215   7.644   4.282   2.340 -0.1667  0.1673  0.5942
  189POPC   O1125216   7.801   4.437   2.480 -0.3287  0.3544 -0.0818
  189POPC    C125217   7.876   4.343   2.557 -0.1985  0.5044 -0.0245
  189POPC    HA25218   7.953   4.392   2.620  1.2174 -0.4717 -0.9726
  189POPC    HB25219   7.928   4.265   2.498 -3.0157 -1.8611  0.4755
  189POPC    C225220   7.781   4.256   2.641 -0.0219  0.3443  0.0087
  189POPC    HS25221   7.731   4.188   2.568  0.9173  0.5867 -0.8678
  189POPC   O2125222   7.687   4.337   2.712  0.3279  0.9695 -0.2486
  189POPC   C2125223   7.578   4.268   2.742  0.7383  0.4102 -0.0362
  189POPC   O2225224   7.549   4.159   2.696  0.4509  0.3846  0.2021
  189POPC   C2225225   7.505   4.349   2.848 -0.0797 -0.4256  0.0457
  189POPC   H2R25226   7.406   4.363   2.798  1.6827  0.8812 -3.2124
  189POPC   H2S25227   7.562   4.443   2.864  0.7599 -0.6206 -1.7427
  189POPC    C325228   7.860   4.171   2.742  0.1942  0.3265 -0.1767
  189POPC    HX25229   0.002   4.143   2.714 -0.0822 -0.9086  0.0132
  189POPC    HY25230   7.809   4.074   2.757 -0.4494  0.8887  1.3472
  189POPC   O3125231   7.859   4.239   2.868 -0.0796 -0.1613  0.0846
  189POPC   C3125232   0.001   4.315   2.901  0.1367 -0.4624  0.2189
  189POPC   O3225233   0.102   4.335   2.836 -0.1081  0.3354  0.0809
  189POPC   C3225234   7.944   4.371   3.042 -0.1285 -0.6601  0.2675
  189POPC   H2X25235   7.904   4.285   3.100  1.2124 -1.4310  0.0917
  189POPC   H2Y25236   7.861   4.444   3.042  0.7147  0.3115 -0.4547
  189POPC   C2325237   7.482   4.280   2.982  0.3259  0.1422  0.4106
  189POPC   H3R25238   7.568   4.210   2.992 -3.3135 -4.6369  0.5698
  189POPC   H3S25239   7.393   4.214   2.994  0.7926 -1.0116 -2.1976
  189POPC   C2425240   7.481   4.373   3.104  0.1625 -0.2183  0.6878
  189POPC   H4R25241   7.391   4.438   3.102  1.2880  1.4206  2.2823
  189POPC   H4S25242   7.557   4.453   3.094  0.3278 -0.6030 -1.5395
  189POPC   C2525243   7.480   4.324   3.249 -0.4508 -0.3000  0.6561
  189POPC   H5R25244   7.552   4.240   3.261  0.3421  0.5613  2.0442
  189POPC   H5S25245   7.375   4.293   3.266 -0.5126  0.2054  1.2006
  189POPC   C2625246   7.529   4.429   3.349  0.2600 -0.4767  0.4941
  189POPC   H6R25247   7.521   4.387   3.451 -2.0685 -0.8280  0.1872
  189POPC   H6S25248   7.456   4.512   3.356  0.0782 -0.5410 -0.5021
  189POPC   C2725249   7.668   4.489   3.326  0.0140 -0.1404 -0.1392
  189POPC   H7R25250   7.647   4.575   3.258  1.7931  0.7826  0.4572
  189POPC   H7S25251   7.735   4.420   3.270 -0.6330  0.4550 -1.6688
  189POPC   C2825252   7.740   4.526   3.456  0.7481 -0.1289 -0.5458
  189POPC   H8R25253   7.681   4.603   3.511 -0.1011  0.1031 -1.7473
  189POPC   H8S25254   7.831   4.581   3.423  1.0912  0.4726  1.3667
  189POPC   C2925255   7.769   4.408   3.544 -0.1942  0.0672  0.0332
  189POPC   H9125256   7.683   4.339   3.534 -1.3990  1.2536  1.9562
  189POPC  C21025257   7.873   4.379   3.623 -0.2042 -0.2868 -0.0814
  189POPC  H10125258   7.875   4.284   3.677 -1.6495 -0.2458  0.0687
  189POPC  C21125259   0.030   4.463   3.658 -0.1889 -0.2439 -0.0939
  189POPC  H11R25260   0.023   4.560   3.604  0.9359 -0.5670 -0.8563
  189POPC  H11S25261   0.118   4.406   3.619 -1.0622 -1.0467 -0.8965
  189POPC  C21225262   0.069   4.481   3.805  0.0676 -0.0872 -0.1793
  189POPC  H12R25263   0.086   4.376   3.836 -1.0847 -0.0006  0.7751
  189POPC  H12S25264   7.942   4.514   3.863  1.1459  2.3143  0.2479
  189POPC  C21325265   0.199   4.560   3.819  0.0738 -0.1298  0.0106
  189POPC  H13R25266   0.180   4.656   3.766 -1.5770  0.0258  0.8592
  189POPC  H13S25267   0.276   4.498   3.766 -1.1442 -2.9775  1.4633
  189POPC  C21425268   0.240   4.591   3.963 -0.1842 -0.4242  0.1481
  189POPC  H14R25269   0.254   4.493   4.014 -0.4294 -0.3224  0.4107
  189POPC  H14S25270   0.154   4.635   4.018 -0.2848 -0.6738  0.1904
  189POPC  C21525271   0.364   4.681   3.963  0.0880 -0.7872 -0.8272
  189POPC  H15R25272   0.427   4.644   3.880 -1.5979 -0.9430 -2.0767
  189POPC  H15S25273   0.424   4.669   4.056 -0.2934 -3.5670 -0.9001
  189POPC  C21625274   0.331   4.829   3.940 -0.2301 -0.7079  0.0934
  189POPC  H16R25275   0.258   4.853   4.020  1.3410 -1.5877  1.8348
  189POPC  H16S25276   0.287   4.854   3.841  0.9317  0.3903 -0.1678
  189POPC  C21725277   0.456   4.918   3.937 -0.4757 -0.3502  0.4423
  189POPC  H17R25278   0.509   4.902   3.841 -1.1248  0.4855 -0.0599
  189POPC  H17S25279   0.517   4.885   4.024  0.4821 -1.7289 -0.7241
  189POPC  C21825280   0.421   5.064   3.965 -0.0794 -0.1138 -0.3008
  189POPC  H18R25281   0.337   5.072   4.038 -0.2433 -1.3471 -0.3481
  189POPC  H18S25282   0.403   5.124   3.873  1.0482 -2.2790 -1.9873
  189POPC  H18T25283   0.499   5.118   4.022 -1.5817 -0.1894  1.8655
  189POPC   C3325284   0.112   4.420   3.107  0.1648 -0.4777 -0.3655
  189POPC   H3X25285   0.121   4.526   3.074 -0.1681 -0.0515  0.8634
  189POPC   H3Y25286   0.200   4.364   3.071  1.1042 -0.2034  1.4315
  189POPC   C3425287   0.102   4.410   3.259  0.1032 -0.9905 -0.4005
  189POPC   H4X25288   0.057   4.314   3.293 -1.4983 -0.4115 -0.8471
  189POPC   H4Y25289   0.031   4.488   3.296 -1.0317 -0.9743 -2.5211
  189POPC   C3525290   0.243   4.421   3.318  0.0003 -0.2932 -0.2748
  189POPC   H5X25291   0.299   4.336   3.274  0.1830  0.5145 -1.6201
  189POPC   H5Y25292   0.234   4.385   3.423 -1.4638 -0.7126 -0.5291
  189POPC   C3625293   0.312   4.556   3.300 -0.1236 -0.1934  0.0080
  189POPC   H6X25294   0.241   4.627   3.253  0.1858 -0.3341 -0.6741
  189POPC   H6Y25295   0.401   4.540   3.236 -1.3750 -2.0409 -1.3203
  189POPC   C3725296   0.352   4.610   3.438 -0.1259  0.1326 -0.1181
  189POPC   H7X25297   0.436   4.558   3.490  0.5689  0.2403 -1.1115
  189POPC   H7Y25298   0.263   4.583   3.499 -1.5127 -0.0802 -2.1906
  189POPC   C3825299   0.370   4.762   3.435  0.2041  0.1060  0.4220
  189POPC   H8X25300   0.276   4.803   3.392  1.2025  1.6299 -0.3376
  189POPC   H8Y25301   0.453   4.797   3.371 -1.1960  1.9757 -0.4413
  189POPC   C3925302   0.391   4.823   3.573  0.2014  0.1509  0.4027
  189POPC   H9X25303   0.472   4.772   3.630 -0.0632 -0.8987 -0.1506
  189POPC   H9Y25304   0.297   4.823   3.633  1.3543  1.4291  2.2820
  189POPC  C31025305   0.424   4.972   3.566  0.3737  0.0566 -0.7830
  189POPC  H10X25306   0.377   5.009   3.659  0.1888 -0.7885 -0.5385
  189POPC  H10Y25307   0.373   5.021   3.480 -3.1087 -0.6430  0.7777
  189POPC  C31125308   0.573   5.005   3.579  0.2926 -0.0551  0.4413
  189POPC  H11X25309   0.617   4.945   3.662 -1.1827 -1.8533 -0.0269
  189POPC  H11Y25310   0.583   5.112   3.605  2.1604  0.0582 -0.6673
  189POPC  C31225311   0.656   4.971   3.455 -0.2354 -0.7323  0.2677
  189POPC  H12X25312   0.608   5.012   3.363  2.5626  1.5300 -0.2646
  189POPC  H12Y25313   0.668   4.862   3.439  1.6265 -0.6375  0.8949
  189POPC  C31325314   0.799   5.026   3.453 -0.3565 -0.4284 -0.0850
  189POPC  H13X25315   0.855   4.982   3.538  2.1944  0.1414 -1.4308
  189POPC  H13Y25316   0.783   5.133   3.475 -1.9446 -0.2331 -2.0210
  189POPC  C31425317   0.870   5.015   3.318  0.1615 -0.4137  0.1876
  189POPC  H14X25318   0.882   4.910   3.284  0.8451  0.4336 -2.3191
  189POPC  H14Y25319   0.970   5.062   3.330  0.5456 -0.7115 -1.7280
  189POPC  C31525320   0.795   5.095   3.211  0.0452 -0.2627  0.3805
  189POPC  H15X25321   0.758   5.189   3.256  0.0069 -1.0377  2.0125
  189POPC  H15Y25322   0.706   5.032   3.188 -1.8240  1.0378  3.7889
  189POPC  C31625323   0.889   5.121   3.093 -0.5442  0.0078 -0.0304
  189POPC  H16X25324   0.991   5.155   3.121 -0.4910 -0.8966  0.8743
  189POPC  H16Y25325   0.844   5.203   3.032 -1.1696  0.1554  0.6249
  189POPC  H16Z25326   0.883   5.026   3.035  1.4886 -1.2403  1.7401
  190POPC     N25327   0.165   4.747   2.349  0.3356 -0.1639  0.3273
  190POPC   C1225328   0.268   4.805   2.443  0.3696  0.4363 -0.0796
  190POPC  H12A25332   0.348   4.830   2.375  1.8104 -1.8061  0.7524
  190POPC  H12B25333   0.315   4.732   2.507  1.4012  0.3869 -0.8832
  190POPC   C1325329   0.037   4.724   2.426 -0.2084 -0.7141 -0.7293
  190POPC  H13A25334   7.913   4.724   2.360  0.1001 -1.6826 -1.1963
  190POPC  H13B25335   0.050   4.634   2.485 -0.0776  0.7556  1.5538
  190POPC  H13C25336   0.027   4.815   2.483 -0.0757  0.1588 -2.0633
  190POPC   C1425330   0.143   4.830   2.224 -0.2158  0.2295  0.6801
  190POPC  H14A25337   0.065   4.797   2.157  0.9788 -0.2737 -0.4881
  190POPC  H14B25338   0.137   4.935   2.247 -2.6227  0.0855  0.7752
  190POPC  H14C25339   0.227   4.814   2.157 -0.2705  0.7570  0.4887
  190POPC   C1525331   0.209   4.611   2.301  0.5043  0.0953 -0.2649
  190POPC  H15A25340   0.309   4.619   2.263  0.4419 -0.8082 -0.6340
  190POPC  H15B25341   0.144   4.559   2.232  0.8144  0.6976 -1.0114
  190POPC  H15C25342   0.221   4.550   2.389 -1.2101  2.1790  1.4803
  190POPC   C1125343   0.226   4.924   2.530  0.0216  0.3136 -0.0802
  190POPC  H11A25344   0.322   4.968   2.563  0.4614  0.4387 -1.5088
  190POPC  H11B25345   0.170   4.880   2.616 -1.5366 -0.1949 -1.3317
  190POPC     P25346   0.185   5.168   2.471  0.0017 -0.2810 -0.0952
  190POPC   O1325347   0.084   5.262   2.417 -0.4230 -0.4565  0.3821
  190POPC   O1425348   0.328   5.182   2.436 -0.2358  0.3151 -0.8439
  190POPC   O1225349   0.148   5.014   2.451 -0.0544 -0.2038 -0.5990
  190POPC   O1125350   0.176   5.179   2.630  0.3159  0.3636 -0.1221
  190POPC    C125351   0.062   5.230   2.700  0.4899  0.0123  0.4177
  190POPC    HA25352   0.028   5.153   2.773  2.2818  0.0474  1.3176
  190POPC    HB25353   7.935   5.238   2.635  0.8347 -2.0218 -0.4016
  190POPC    C225354   0.080   5.374   2.749 -0.4923  0.4318 -0.4543
  190POPC    HS25355   0.075   5.435   2.656 -0.6368  1.0078 -0.0729
  190POPC   O2125356   0.209   5.387   2.808 -0.6439  0.6023 -0.1547
  190POPC   C2125357   0.259   5.510   2.827  0.0388  0.2222  0.5439
  190POPC   O2225358   0.202   5.608   2.784 -0.0908 -0.4670 -0.9196
  190POPC   C2225359   0.394   5.493   2.896  0.4605  0.2993 -0.2558
  190POPC   H2R25360   0.455   5.425   2.833 -0.4008 -0.7909  0.0708
  190POPC   H2S25361   0.369   5.442   2.991 -1.5024  1.7893  0.0610
  190POPC    C325362   7.929   5.421   2.843 -0.0996 -0.1691  0.3730
  190POPC    HX25363   7.834   5.433   2.787 -0.4007 -0.3798  0.8415
  190POPC    HY25364   7.938   5.523   2.887 -3.9963 -0.5178  2.1880
  190POPC   O3125365   7.913   5.333   2.954 -0.0640 -0.1253  0.4136
  190POPC   C3125366   7.811   5.370   3.033  0.2094  0.5194  0.4675
  190POPC   O3225367   7.730   5.457   3.007 -0.2644 -0.2348 -0.6150
  190POPC   C3225368   7.799   5.267   3.144  0.0936 -0.1514 -0.1622
  190POPC   H2X25369   7.897   5.252   3.194  0.3518 -1.2453 -0.9665
  190POPC   H2Y25370   7.766   5.169   3.101 -0.7199  0.1364 -0.2063
  190POPC   C2325371   0.473   5.622   2.920 -0.1826  0.5896  0.3353
  190POPC   H3R25372   0.507   5.661   2.821 -1.2374 -0.5613 -0.4967
  190POPC   H3S25373   0.563   5.593   2.978 -0.9478  0.7028  1.5831
  190POPC   C2425374   0.407   5.732   3.003 -0.0850  0.6217  0.3714
  190POPC   H4R25375   0.386   5.694   3.105  2.0834  0.4000  0.7456
  190POPC   H4S25376   0.306   5.764   2.967 -0.1487  0.7012  0.6234
  190POPC   C2525377   0.495   5.853   3.031  0.4564  0.1495  0.7139
  190POPC   H5R25378   0.517   5.902   2.933 -0.1824 -1.4405 -0.2467
  190POPC   H5S25379   0.588   5.818   3.080  1.6841  1.1996 -0.8021
  190POPC   C2625380   0.423   5.952   3.122 -0.0784  0.1954  0.2430
  190POPC   H6R25381   0.392   5.894   3.213 -0.2228  2.2711  1.5480
  190POPC   H6S25382   0.333   5.989   3.069 -0.7527  1.7249  2.3716
  190POPC   C2725383   0.505   6.076   3.156  0.1245  0.0610  0.2482
  190POPC   H7R25384   0.530   6.146   3.073  0.4759 -0.8808 -0.4522
  190POPC   H7S25385   0.601   6.029   3.185  1.2515  0.8542 -2.0505
  190POPC   C2825386   0.437   6.160   3.264 -0.0671 -0.0221  0.1903
  190POPC   H8R25387   0.416   6.099   3.354  0.1001 -0.2388  0.0823
  190POPC   H8S25388   0.338   6.181   3.216 -0.3096  0.4660  0.8970
  190POPC   C2925389   0.507   6.286   3.307 -0.3148  0.1583  0.0716
  190POPC   H9125390   0.610   6.307   3.274 -0.9763  1.4422 -1.2348
  190POPC  C21025391   0.451   6.377   3.388  0.2411  0.6757 -0.1239
  190POPC  H10125392   0.508   6.466   3.417  4.1142 -1.5697 -0.4745
  190POPC  C21125393   0.311   6.364   3.442  0.4104  0.3368  0.2272
  190POPC  H11R25394   0.286   6.257   3.425  1.6035  0.2051 -0.7855
  190POPC  H11S25395   0.243   6.425   3.379  1.0814 -1.6453 -2.5182
  190POPC  C21225396   0.299   6.391   3.592  0.0129 -0.1422  0.2845
  190POPC  H12R25397   0.389   6.433   3.643 -0.0972  1.2274 -0.6134
  190POPC  H12S25398   0.274   6.297   3.646  0.6204 -0.9455 -0.8132
  190POPC  C21325399   0.184   6.483   3.632  0.1150  0.0128  0.2250
  190POPC  H13R25400   0.096   6.467   3.565  0.5583  0.9847 -0.6041
  190POPC  H13S25401   0.216   6.589   3.620 -2.1968  0.7476  0.2299
  190POPC  C21425402   0.136   6.457   3.775  0.0150 -0.3493  0.1267
  190POPC  H14R25403   0.217   6.484   3.845 -0.1460 -4.0920  1.8592
  190POPC  H14S25404   0.119   6.348   3.789  2.0679 -0.9184 -1.6692
  190POPC  C21525405   0.008   6.533   3.811  0.0777 -0.2336  0.1077
  190POPC  H15R25406   7.880   6.505   3.751 -0.8037 -0.0747  1.2658
  190POPC  H15S25407   0.021   6.643   3.802  1.0938 -0.4751 -1.4674
  190POPC  C21625408   7.916   6.522   3.954 -0.5737 -0.0747 -0.1068
  190POPC  H16R25409   7.874   6.419   3.957 -0.9590  0.0596 -0.8605
  190POPC  H16S25410   7.837   6.600   3.955 -0.2483  0.2608 -0.7061
  190POPC  C21725411   0.051   6.542   4.071 -0.2891  0.0054 -0.3224
  190POPC  H17R25412   7.942   6.574   4.150 -2.2368 -0.9186 -1.6502
  190POPC  H17S25413   0.133   6.611   4.040  0.6799 -1.7022 -1.6153
  190POPC  C21825414   0.115   6.413   4.120  0.6394  0.4095 -0.4671
  190POPC  H18R25415   0.175   6.368   4.038 -1.1424 -2.1931 -0.3914
  190POPC  H18S25416   0.031   6.346   4.149  1.2851  0.0936  0.7141
  190POPC  H18T25417   0.181   6.429   4.208  0.8680 -2.2214 -0.1317
  190POPC   C3325418   7.693   5.325   3.238  0.1857 -0.1621 -0.0525
  190POPC   H3X25419   7.606   5.342   3.171 -1.4969 -1.6224  1.7008
  190POPC   H3Y25420   7.729   5.428   3.258 -1.2803  1.0114 -3.2120
  190POPC   C3425421   7.665   5.238   3.361 -0.2763 -0.1714 -0.1623
  190POPC   H4X25422   7.763   5.242   3.414  0.4600 -1.9159 -1.3387
  190POPC   H4Y25423   7.650   5.131   3.334 -0.0574 -0.1077 -0.5413
  190POPC   C3525424   7.566   5.308   3.454  0.3646  0.3068  0.1675
  190POPC   H5X25425   7.463   5.288   3.417  0.2864 -1.2768  1.2083
  190POPC   H5Y25426   7.583   5.418   3.447 -0.6552  0.4622 -0.0325
  190POPC   C3625427   7.592   5.259   3.596  0.3565  0.2418  0.1460
  190POPC   H6X25428   7.691   5.298   3.628 -1.7971  4.9926  1.5466
  190POPC   H6Y25429   7.602   5.148   3.594  1.5230  0.3380  0.5527
  190POPC   C3725430   7.485   5.301   3.697 -0.1574  0.3210 -0.4279
  190POPC   H7X25431   7.491   5.250   3.795 -0.2473  1.8080  0.3741
  190POPC   H7Y25432   7.379   5.295   3.665 -1.3940  1.7425  3.1520
  190POPC   C3825433   7.491   5.450   3.732  0.7192  0.1327  0.2463
  190POPC   H8X25434   7.463   5.517   3.648 -0.8480  0.0137  0.6696
  190POPC   H8Y25435   7.593   5.479   3.766 -0.2492  0.5252  2.8631
  190POPC   C3925436   7.392   5.478   3.844  0.1427  0.1626 -0.2683
  190POPC   H9X25437   7.414   5.425   3.940  1.1519  1.9097  0.4859
  190POPC   H9Y25438   7.290   5.450   3.810  0.8372 -2.2632 -0.4320
  190POPC  C31025439   7.404   5.622   3.895  0.2532 -0.1550  0.6057
  190POPC  H10X25440   7.359   5.695   3.826 -2.2098 -1.9068  0.2860
  190POPC  H10Y25441   7.512   5.648   3.894 -0.0116  0.9285 -0.3589
  190POPC  C31125442   7.347   5.618   4.037 -0.5215  0.0031  0.2993
  190POPC  H11X25443   7.419   5.564   4.102 -1.2485  1.8142  2.6841
  190POPC  H11Y25444   7.252   5.560   4.033  0.0452 -0.8811 -0.4821
  190POPC  C31225445   7.337   5.762   4.088 -0.1263  0.0351  0.2849
  190POPC  H12X25446   7.314   5.822   3.997  1.8620 -1.0250 -0.9688
  190POPC  H12Y25447   7.441   5.788   4.117  0.0422 -0.8977  0.5268
  190POPC  C31325448   7.253   5.774   4.215  0.4544 -0.5273  0.7243
  190POPC  H13X25449   7.290   5.711   4.299  0.2261  0.6736  1.7244
  190POPC  H13Y25450   7.155   5.724   4.200 -0.9898  1.6267  2.6460
  190POPC  C31425451   7.212   5.916   4.254  0.4874 -0.1901 -0.4610
  190POPC  H14X25452   7.140   5.909   4.338 -3.9594 -2.0040 -4.2203
  190POPC  H14Y25453   7.154   5.965   4.173  0.9769 -0.8676 -1.2336
  190POPC  C31525454   7.314   6.019   4.304  0.2638  0.0494 -0.5038
  190POPC  H15X25455   7.397   6.012   4.231 -0.7160 -0.2548 -1.6184
  190POPC  H15Y25456   7.354   6.002   4.406  1.3043 -0.9559 -1.0720
  190POPC  C31625457   7.269   6.165   4.297 -0.0981 -0.0214  0.2335
  190POPC  H16X25458   7.184   6.181   4.366  1.0926  0.4940  1.6231
  190POPC  H16Y25459   7.241   6.180   4.190 -0.5075 -2.4150 -0.0031
  190POPC  H16Z25460   7.352   6.234   4.325 -1.1045  2.3162 -2.2473
  191POPC     N25461   0.278   6.975   1.969  0.2705  0.1457  0.1194
  191POPC   C1225462   0.377   7.057   2.047  0.2991  0.0577  0.1753
  191POPC  H12A25466   0.422   7.124   1.976 -1.1162  1.6893  0.7918
  191POPC  H12B25467   0.445   6.984   2.089  0.9906  0.5034 -0.1538
  191POPC   C1325463   0.178   7.059   1.893 -0.2546 -0.3581  0.2445
  191POPC  H13A25468   0.127   7.003   1.816  0.2303  0.2468 -0.5240
  191POPC  H13B25469   0.100   7.088   1.962  0.3976  1.3099  0.3036
  191POPC  H13C25470   0.225   7.145   1.846 -1.6560  0.3309  0.0926
  191POPC   C1425464   0.352   6.889   1.869 -0.0022 -0.4688  0.4419
  191POPC  H14A25471   0.279   6.836   1.809  0.0825  1.1813 -1.1771
  191POPC  H14B25472   0.405   6.962   1.809  0.1702 -0.8855  0.0893
  191POPC  H14C25473   0.416   6.823   1.925 -0.3174 -0.0977  1.2481
  191POPC   C1525465   0.203   6.880   2.059 -0.3371 -0.2094 -0.7524
  191POPC  H15A25474   0.132   6.938   2.116  0.7370 -0.0873  0.4953
  191POPC  H15B25475   0.277   6.835   2.123  0.1401  0.4061 -0.8683
  191POPC  H15C25476   0.149   6.810   1.997 -1.5634  0.1661 -0.1365
  191POPC   C1125477   0.329   7.149   2.159 -0.4239  0.0881 -0.1607
  191POPC  H11A25478   0.244   7.212   2.125  1.1473  1.8758 -0.7844
  191POPC  H11B25479   0.416   7.215   2.176 -0.2576 -0.3346  0.6742
  191POPC     P25480   0.371   7.106   2.410 -0.1209 -0.4157  0.1585
  191POPC   O1325481   0.507   7.049   2.394  0.3889  0.7461  0.2918
  191POPC   O1425482   0.291   7.062   2.527 -0.1022 -0.2278  0.2438
  191POPC   O1225483   0.296   7.069   2.274  0.6175 -0.4545 -0.2375
  191POPC   O1125484   0.381   7.266   2.411 -0.2899 -0.4057 -0.0859
  191POPC    C125485   0.503   7.339   2.411 -0.4524 -0.1342  0.8471
  191POPC    HA25486   0.481   7.448   2.402 -1.1200 -0.3180  0.2976
  191POPC    HB25487   0.569   7.305   2.329  0.3094 -0.8700  1.7491
  191POPC    C225488   0.579   7.316   2.543  0.2545 -1.4492  0.2200
  191POPC    HS25489   0.630   7.217   2.542  0.1831 -1.4819 -1.2924
  191POPC   O2125490   0.478   7.327   2.644 -0.2442  0.1912 -0.4386
  191POPC   C2125491   0.494   7.248   2.750  0.2032  0.0880 -0.5819
  191POPC   O2225492   0.601   7.192   2.768 -0.0719 -0.2822 -0.0681
  191POPC   C2225493   0.367   7.236   2.834  0.5775  0.2741  0.0215
  191POPC   H2R25494   0.321   7.137   2.814 -1.9914  1.3607  0.3242
  191POPC   H2S25495   0.298   7.312   2.792  1.8695  1.6376  0.3174
  191POPC    C325496   0.676   7.431   2.573 -0.1799 -0.9779 -0.1756
  191POPC    HX25497   0.624   7.530   2.570  1.3009 -0.2459 -3.4191
  191POPC    HY25498   0.753   7.423   2.494 -0.8781 -0.3822 -0.9222
  191POPC   O3125499   0.725   7.420   2.707  0.3495  0.3271 -0.2536
  191POPC   C3125500   0.855   7.435   2.734  0.4196 -0.6361 -0.0554
  191POPC   O3225501   0.935   7.474   2.650  0.4057 -0.0115  0.2254
  191POPC   C3225502   0.876   7.426   2.884 -0.1127 -0.5739  0.0243
  191POPC   H2X25503   0.975   7.380   2.906  2.5052  4.4284 -0.3701
  191POPC   H2Y25504   0.796   7.365   2.931  1.5528 -2.7694  0.0672
  191POPC   C2325505   0.395   7.259   2.982 -0.1406  0.0774  0.1860
  191POPC   H3R25506   0.435   7.359   3.008  1.6136 -1.1120  2.3367
  191POPC   H3S25507   0.475   7.192   3.020 -3.1382 -2.2667  2.7340
  191POPC   C2425508   0.267   7.242   3.065 -0.2181  0.1166  0.0736
  191POPC   H4R25509   0.221   7.141   3.057  0.9707 -0.3638 -0.8537
  191POPC   H4S25510   0.178   7.293   3.023  0.4996  1.3638  0.0351
  191POPC   C2525511   0.272   7.303   3.205 -0.3205 -0.2781  0.2486
  191POPC   H5R25512   0.173   7.299   3.255  0.5281 -1.8252  1.8316
  191POPC   H5S25513   0.296   7.411   3.189  1.1928 -0.5646  0.5058
  191POPC   C2625514   0.381   7.242   3.293  0.4488  0.3460 -0.2652
  191POPC   H6R25515   0.482   7.271   3.258  0.8491 -0.1983  0.4139
  191POPC   H6S25516   0.376   7.132   3.281  1.5077  0.3161 -0.4843
  191POPC   C2725517   0.375   7.280   3.441  0.7945 -0.1794 -0.1154
  191POPC   H7R25518   0.457   7.236   3.501  1.2288  1.1304  0.2694
  191POPC   H7S25519   0.281   7.239   3.485  0.6531 -1.5002 -1.6100
  191POPC   C2825520   0.376   7.431   3.466  0.0830 -0.1704 -0.1140
  191POPC   H8R25521   0.280   7.469   3.427  1.3973 -0.8878 -4.2828
  191POPC   H8S25522   0.455   7.465   3.397  0.7555 -1.9751 -0.2785
  191POPC   C2925523   0.421   7.451   3.608 -0.3985 -0.1705  0.0387
  191POPC   H9125524   0.498   7.380   3.640 -1.9605 -2.5700 -1.3680
  191POPC  C21025525   0.376   7.550   3.688  0.3284  0.1654  0.0360
  191POPC  H10125526   0.397   7.549   3.796  0.4125  4.3549  0.1122
  191POPC  C21125527   0.268   7.646   3.649 -0.0986 -0.2820  0.1198
  191POPC  H11R25528   0.260   7.666   3.540 -1.6122  2.3453  0.6630
  191POPC  H11S25529   0.297   7.740   3.699  0.8883 -1.3486  1.5861
  191POPC  C21225530   0.122   7.615   3.683 -0.2539  0.1103 -0.1965
  191POPC  H12R25531   0.096   7.511   3.653  1.2320 -0.0485 -0.9687
  191POPC  H12S25532   0.048   7.687   3.642 -0.5339 -0.4747 -0.7311
  191POPC  C21325533   0.103   7.615   3.834  0.1229  0.6156 -0.1488
  191POPC  H13R25534   0.124   7.719   3.867  2.0108  0.1061  0.3199
  191POPC  H13S25535   0.177   7.546   3.879 -2.1396 -1.7416  0.0619
  191POPC  C21425536   7.929   7.561   3.877  0.0137  0.4979 -0.5108
  191POPC  H14R25537   7.936   7.450   3.869  0.4307  0.6342 -2.1133
  191POPC  H14S25538   7.838   7.592   3.820 -1.1349 -2.3213 -0.3107
  191POPC  C21525539   7.889   7.589   4.023 -0.3126  0.1238 -0.5261
  191POPC  H15R25540   7.790   7.543   4.042  0.8528 -1.2200  2.6271
  191POPC  H15S25541   7.899   7.695   4.056  0.9284 -0.1324 -0.0400
  191POPC  C21625542   0.022   7.524   4.123  0.0333  0.2734 -0.7140
  191POPC  H16R25543   0.125   7.564   4.120 -1.3126  3.9844  0.2424
  191POPC  H16S25544   0.018   7.413   4.116  0.1812  0.2497 -0.4370
  191POPC  C21725545   7.926   7.548   4.263  0.7624 -0.2479 -0.3020
  191POPC  H17R25546   7.828   7.496   4.272 -0.5185  2.3613  1.4356
  191POPC  H17S25547   7.909   7.655   4.288 -0.2212 -0.5463  0.3375
  191POPC  C21825548   0.044   7.486   4.378  0.2506 -1.0666 -0.3474
  191POPC  H18R25549   0.146   7.531   4.378  1.1383 -3.0604 -0.3039
  191POPC  H18S25550   0.054   7.378   4.357  0.7364 -1.3915  1.4746
  191POPC  H18T25551   7.953   7.510   4.473  1.9145  2.5993 -0.2106
  191POPC   C3325552   0.854   7.563   2.949  0.5081 -0.6278  0.3505
  191POPC   H3X25553   0.823   7.553   3.055 -1.9689 -2.6182 -0.5186
  191POPC   H3Y25554   0.764   7.617   2.912  1.1269 -0.2782 -0.6859
  191POPC   C3425555   0.968   7.664   2.932  0.1461 -0.3690 -0.5752
  191POPC   H4X25556   0.971   7.685   2.823 -1.1206 -0.9267 -0.7248
  191POPC   H4Y25557   1.065   7.617   2.961  0.2278  0.5012  0.5901
  191POPC   C3525558   0.960   7.793   3.014 -0.1167 -0.5816 -0.2631
  191POPC   H5X25559   0.958   7.765   3.121  1.4499  0.8254  0.1575
  191POPC   H5Y25560   0.869   7.850   2.985  0.7011 -0.2756 -2.3538
  191POPC   C3625561   1.081   7.880   2.977 -0.6239  0.2052 -0.0939
  191POPC   H6X25562   1.103   7.867   2.869  0.3182  0.7249  0.0337
  191POPC   H6Y25563   1.171   7.846   3.033  0.6495  1.5914 -1.2642
  191POPC   C3725564   1.058   0.066   3.004 -0.2268  0.1946  0.5561
  191POPC   H7X25565   1.047   0.083   3.113 -2.7784  3.1860 -0.0730
  191POPC   H7Y25566   0.952   0.092   2.982  0.5733  0.4162 -3.5653
  191POPC   C3825567   1.170   0.154   2.948 -0.5729  0.2830 -0.0098
  191POPC   H8X25568   1.180   0.138   2.839 -0.1716  0.4685 -0.0010
  191POPC   H8Y25569   1.263   0.138   3.006 -1.5423  0.8499  1.7606
  191POPC   C3925570   1.152   0.306   2.954  0.8497  0.4409  0.4197
  191POPC   H9X25571   1.051   0.322   2.911  1.0010 -1.8200 -0.8290
  191POPC   H9Y25572   1.206   0.367   2.878 -0.8131  0.7916 -0.5048
  191POPC  C31025573   1.144   0.361   3.097  0.2987  0.5834  0.3356
  191POPC  H10X25574   1.246   0.363   3.141  0.5210 -0.9256 -0.0639
  191POPC  H10Y25575   1.096   0.280   3.157 -1.7222  1.8275  0.4338
  191POPC  C31125576   1.059   0.487   3.113  0.0172  0.4075  0.2379
  191POPC  H11X25577   0.969   0.493   3.048  1.5966 -1.5407 -2.2170
  191POPC  H11Y25578   1.135   0.561   3.080  1.3517 -1.6848 -1.5614
  191POPC  C31225579   1.024   0.509   3.261 -0.5429 -0.5322  0.2506
  191POPC  H12X25580   0.949   0.432   3.286 -1.1791  0.6299  2.0285
  191POPC  H12Y25581   0.972   0.607   3.265 -1.9756 -1.2897  0.4920
  191POPC  C31325582   1.136   0.480   3.361 -0.1873 -0.1213 -0.0256
  191POPC  H13X25583   1.228   0.517   3.312 -0.3769 -0.1001 -0.3674
  191POPC  H13Y25584   1.143   0.371   3.382  1.4849  0.2719  1.5899
  191POPC  C31425585   1.117   0.535   3.502 -1.1555  0.7285 -0.4749
  191POPC  H14X25586   1.220   0.515   3.540  0.1682  1.6832 -3.4606
  191POPC  H14Y25587   1.040   0.477   3.558  0.3368  0.4306  1.3273
  191POPC  C31525588   1.080   0.683   3.508 -0.6476  0.8657 -0.6488
  191POPC  H15X25589   0.983   0.695   3.454 -1.6961 -0.3004  0.9236
  191POPC  H15Y25590   1.166   0.737   3.464  0.7280 -0.5632  0.2638
  191POPC  C31625591   1.054   0.737   3.649 -0.1792 -0.2587 -0.1258
  191POPC  H16X25592   0.975   0.676   3.697  1.0012 -0.1207  2.0776
  191POPC  H16Y25593   1.009   0.838   3.640 -0.4898 -0.4046 -0.1851
  191POPC  H16Z25594   1.150   0.734   3.706 -0.6228  0.6975  0.6795
  192POPC     N25595   3.722   0.730   1.379  0.1458  0.0105 -0.0739
  192POPC   C1225596   3.610   0.736   1.480  0.0018  0.0613 -0.2360
  192POPC  H12A25600   3.525   0.685   1.437  0.5084  0.6458 -1.9568
  192POPC  H12B25601   3.594   0.842   1.486 -0.7294 -0.1198  1.2403
  192POPC   C1325597   3.808   0.850   1.409 -0.6723  0.4457  0.5398
  192POPC  H13A25602   3.877   0.864   1.327 -0.9073 -1.5438 -0.0047
  192POPC  H13B25603   3.752   0.943   1.405 -1.2757  0.1004  0.8567
  192POPC  H13C25604   3.875   0.843   1.493  1.2633 -1.5952 -1.1372
  192POPC   C1425598   3.793   0.598   1.389  0.0833 -0.0195 -0.0260
  192POPC  H14A25605   3.721   0.518   1.375  0.6256 -0.1271 -2.4289
  192POPC  H14B25606   3.869   0.604   1.312 -1.4626  1.3555 -1.4604
  192POPC  H14C25607   3.832   0.589   1.490  0.9906  1.9836 -0.1748
  192POPC   C1525599   3.664   0.758   1.242 -0.3963 -0.2924  0.0921
  192POPC  H15A25608   3.630   0.860   1.242  3.2526  1.0126 -0.8234
  192POPC  H15B25609   3.578   0.700   1.213 -0.4040  0.4275 -1.3571
  192POPC  H15C25610   3.730   0.762   1.157 -0.6045  1.3601  0.0055
  192POPC   C1125611   3.614   0.671   1.619 -0.1012 -0.1369 -0.3247
  192POPC  H11A25612   3.610   0.561   1.610  2.2367 -0.1421 -1.6961
  192POPC  H11B25613   3.526   0.714   1.671  1.3541  1.6313  0.7467
  192POPC     P25614   3.752   0.639   1.830  0.1870  0.1907  0.0893
  192POPC   O1325615   3.872   0.709   1.882  0.1034  0.3389  0.0835
  192POPC   O1425616   3.790   0.498   1.808 -0.0934  0.0343  0.5977
  192POPC   O1225617   3.731   0.713   1.690  0.0445 -0.5820 -0.2993
  192POPC   O1125618   3.622   0.667   1.920  0.3700 -0.1856  0.4707
  192POPC    C125619   3.574   0.799   1.943  0.4350 -0.1101  0.1703
  192POPC    HA25620   3.472   0.798   1.985  0.8845  1.4644  1.3566
  192POPC    HB25621   3.578   0.859   1.849 -2.2632  0.1996  0.2276
  192POPC    C225622   3.661   0.875   2.045 -0.2000  0.5746  0.2013
  192POPC    HS25623   3.755   0.902   1.992 -0.4613 -0.5765 -0.8782
  192POPC   O2125624   3.689   0.784   2.151  0.4387  0.2054 -0.2842
  192POPC   C2125625   3.801   0.819   2.215  0.5704 -0.2473 -0.2603
  192POPC   O2225626   3.862   0.922   2.191  0.0150  0.2534  0.4372
  192POPC   C2225627   3.843   0.713   2.315  0.0383 -0.6308 -0.4436
  192POPC   H2R25628   3.951   0.690   2.304  0.7564  2.4643 -0.2234
  192POPC   H2S25629   3.787   0.618   2.299  3.0023 -2.6051  0.4779
  192POPC    C325630   3.590   1.003   2.094 -0.5786  0.2851  0.4095
  192POPC    HX25631   3.545   1.064   2.013  0.8798  0.2695 -0.4165
  192POPC    HY25632   3.652   1.077   2.149  0.4722  0.8539 -1.5150
  192POPC   O3125633   3.482   0.971   2.182 -0.5569 -0.2901  0.2298
  192POPC   C3125634   3.499   0.969   2.314 -0.3525 -0.1249  0.2059
  192POPC   O3225635   3.605   1.000   2.366 -0.4388  0.3798  0.0904
  192POPC   C3225636   3.369   0.933   2.386 -0.3405 -0.4963  0.0402
  192POPC   H2X25637   3.347   0.831   2.349  0.2671 -0.6672  0.1440
  192POPC   H2Y25638   3.285   1.000   2.356  0.0117  0.9170  2.1112
  192POPC   C2325639   3.806   0.748   2.459  0.5254  0.1688 -0.5112
  192POPC   H3R25640   3.695   0.759   2.463  0.0213 -4.5268  1.9427
  192POPC   H3S25641   3.860   0.842   2.481 -1.1348  1.1753 -0.6203
  192POPC   C2425642   3.874   0.665   2.568 -0.0089 -0.1321 -0.4049
  192POPC   H4R25643   3.972   0.623   2.535  1.0380 -1.2762  3.8153
  192POPC   H4S25644   3.807   0.577   2.583 -0.0927 -0.0658 -0.3874
  192POPC   C2525645   3.900   0.735   2.702 -0.7269  0.2662 -0.4748
  192POPC   H5R25646   3.963   0.826   2.707 -0.1003 -0.3340  3.8008
  192POPC   H5S25647   3.952   0.663   2.768  1.1127  0.8425 -1.2745
  192POPC   C2625648   3.768   0.767   2.773 -0.4170 -0.3448  0.3745
  192POPC   H6R25649   3.725   0.672   2.812 -0.3541 -0.0385  1.2042
  192POPC   H6S25650   3.699   0.817   2.703 -0.0507  1.5734  1.3314
  192POPC   C2725651   3.784   0.857   2.897  0.4895 -0.2470  0.1947
  192POPC   H7R25652   3.893   0.877   2.902  0.5121 -0.4872  0.7172
  192POPC   H7S25653   3.758   0.804   2.991 -3.5183  0.1101 -0.6291
  192POPC   C2825654   3.704   0.987   2.897  0.3875 -0.3058 -0.4357
  192POPC   H8R25655   3.730   1.044   2.805  1.0280 -0.5572 -0.4082
  192POPC   H8S25656   3.734   1.054   2.981 -1.3898 -1.2978  1.0327
  192POPC   C2925657   3.554   0.971   2.900  0.3682 -0.0759 -0.1935
  192POPC   H9125658   3.507   0.964   2.801  1.3060  1.2449 -0.7625
  192POPC  C21025659   3.478   0.967   3.010  0.0597  0.4090 -0.3833
  192POPC  H10125660   3.371   0.948   2.999  0.4196 -0.5852 -2.3976
  192POPC  C21125661   3.517   0.958   3.155  0.0311 -0.1413 -0.4068
  192POPC  H11R25662   3.621   0.993   3.173 -1.2032  2.6864  1.6706
  192POPC  H11S25663   3.504   0.856   3.197 -1.3070  0.4654  0.6861
  192POPC  C21225664   3.429   1.059   3.228  0.3821 -0.2164  0.1263
  192POPC  H12R25665   3.326   1.025   3.204 -0.0820  0.4487  1.1076
  192POPC  H12S25666   3.446   1.161   3.188 -2.4780 -0.2591 -1.3314
  192POPC  C21325667   3.463   1.081   3.376  0.4434  0.4275  0.0206
  192POPC  H13R25668   3.382   1.127   3.436  0.1786  2.2251 -1.6798
  192POPC  H13S25669   3.560   1.135   3.377  0.3732  0.5338  1.3049
  192POPC  C21425670   3.472   0.949   3.452  0.7751  0.2606 -0.3028
  192POPC  H14R25671   3.557   0.896   3.403  0.2103  0.8656 -1.9640
  192POPC  H14S25672   3.376   0.894   3.446  0.4359  0.8421 -0.2272
  192POPC  C21525673   3.513   0.963   3.599 -1.1152 -0.0421  0.2643
  192POPC  H15R25674   3.429   0.999   3.662 -0.1209  1.2577  0.8773
  192POPC  H15S25675   3.600   1.033   3.598 -0.1159 -1.2781 -0.0299
  192POPC  C21625676   3.577   0.840   3.662 -0.4401  0.1910  0.0314
  192POPC  H16R25677   3.664   0.811   3.599 -0.7051 -2.5588  0.8797
  192POPC  H16S25678   3.516   0.748   3.658 -0.4636  0.1079  1.7202
  192POPC  C21725679   3.621   0.863   3.807  0.1631  0.2575 -0.1583
  192POPC  H17R25680   3.530   0.896   3.861 -0.0376 -1.4244  0.5782
  192POPC  H17S25681   3.693   0.947   3.807 -0.1606  0.6307  4.0364
  192POPC  C21825682   3.675   0.742   3.884  0.4235  0.6285  0.2472
  192POPC  H18R25683   3.731   0.676   3.813  0.3036 -0.2630  0.9684
  192POPC  H18S25684   3.598   0.685   3.939 -0.2409 -0.3608 -1.6401
  192POPC  H18T25685   3.750   0.778   3.957 -1.1911 -1.3164  2.9707
  192POPC   C3325686   3.372   0.922   2.538  0.0708 -0.4208  0.0388
  192POPC   H3X25687   3.414   1.012   2.587 -2.7089  1.0981 -0.2729
  192POPC   H3Y25688   3.426   0.831   2.571  0.7466 -0.4424 -1.1117
  192POPC   C3425689   3.229   0.911   2.592  0.2001 -1.0631  0.2570
  192POPC   H4X25690   3.182   0.815   2.560 -1.0048 -1.3531  2.7638
  192POPC   H4Y25691   3.169   0.998   2.557  1.2075  0.5595  2.4504
  192POPC   C3525692   3.216   0.916   2.744  0.0167 -0.4052  0.2202
  192POPC   H5X25693   3.227   1.022   2.777  2.5299 -0.6868  0.4057
  192POPC   H5Y25694   3.299   0.859   2.793  0.7162  0.3147 -0.1146
  192POPC   C3625695   3.081   0.881   2.806 -0.0955 -0.0432  0.1856
  192POPC   H6X25696   3.035   0.810   2.734 -2.8222  0.2700  1.5533
  192POPC   H6Y25697   3.018   0.972   2.806  0.4618  0.3828 -2.1477
  192POPC   C3725698   3.099   0.835   2.951 -0.0151 -0.5931  0.0062
  192POPC   H7X25699   3.143   0.915   3.015  0.8150 -1.3891  0.4330
  192POPC   H7Y25700   3.173   0.753   2.957 -1.4270 -1.9983 -1.4772
  192POPC   C3825701   2.969   0.785   3.015 -0.1044  0.0594  0.3457
  192POPC   H8X25702   2.932   0.706   2.947 -1.1164  1.2897 -0.5596
  192POPC   H8Y25703   2.902   0.872   3.028  0.8785  0.6214  1.8810
  192POPC   C3925704   3.002   0.709   3.144  0.1401 -0.6170 -0.1103
  192POPC   H9X25705   3.055   0.614   3.122 -1.6829 -1.6806 -0.0661
  192POPC   H9Y25706   2.903   0.674   3.181 -0.7276  2.0786  0.2288
  192POPC  C31025707   3.059   0.797   3.256 -0.1339  0.0305 -0.4761
  192POPC  H10X25708   3.006   0.893   3.272  0.9607  0.4691  0.5339
  192POPC  H10Y25709   3.164   0.828   3.239 -0.5274  0.5041 -2.1994
  192POPC  C31125710   3.055   0.734   3.395 -0.4405  0.4874 -0.2763
  192POPC  H11X25711   3.131   0.654   3.407  1.5325  2.4713  0.8083
  192POPC  H11Y25712   2.960   0.678   3.413 -0.2199  0.9745  2.6850
  192POPC  C31225713   3.077   0.834   3.508  0.3597 -0.2214  0.2016
  192POPC  H12X25714   2.996   0.910   3.513  0.9538  0.4399 -0.1862
  192POPC  H12Y25715   3.172   0.889   3.493 -0.8085  2.0101  0.7612
  192POPC  C31325716   3.080   0.765   3.645  0.3431 -0.2966  0.1644
  192POPC  H13X25717   2.990   0.704   3.667 -0.5164  1.0353  0.3726
  192POPC  H13Y25718   3.097   0.841   3.724 -1.6648 -0.1328  0.4564
  192POPC  C31425719   3.193   0.663   3.664  0.8163  0.1740 -0.1050
  192POPC  H14X25720   3.290   0.713   3.643  0.3966  1.5516  1.1501
  192POPC  H14Y25721   3.174   0.576   3.597 -1.1531  0.5765 -0.1149
  192POPC  C31525722   3.198   0.600   3.803  0.2050 -0.9348 -0.5821
  192POPC  H15X25723   3.097   0.568   3.837  0.3004 -1.9257 -1.2100
  192POPC  H15Y25724   3.240   0.675   3.873 -0.1584 -0.7737 -0.5346
  192POPC  C31625725   3.292   0.481   3.824  0.0399 -1.0058 -0.2416
  192POPC  H16X25726   3.268   0.400   3.752  0.3953 -1.0577 -0.3032
  192POPC  H16Y25727   3.273   0.447   3.928  0.5058  3.4967  1.4332
  192POPC  H16Z25728   3.399   0.514   3.821 -0.4007  0.4887 -0.2030
  193POPC     N25729   4.083   5.175   1.582 -0.3702  0.2060  0.0808
  193POPC   C1225730   3.978   5.179   1.690 -0.4278  0.2615  0.0239
  193POPC  H12A25734   3.885   5.139   1.651 -1.0330 -0.0677  1.7553
  193POPC  H12B25735   3.957   5.283   1.712 -1.7384 -0.6047  3.1982
  193POPC   C1325731   4.051   5.280   1.477  0.4665 -0.3513 -0.7405
  193POPC  H13A25736   3.955   5.266   1.429  0.0324 -1.1290  0.3339
  193POPC  H13B25737   4.043   5.373   1.531  1.9557  1.0404 -2.8600
  193POPC  H13C25738   4.136   5.303   1.415  0.0540 -0.9235 -1.5383
  193POPC   C1425732   4.217   5.208   1.641 -0.5433  0.6709  0.2163
  193POPC  H14A25739   4.301   5.221   1.574 -1.8413 -0.9438 -1.7772
  193POPC  H14B25740   4.221   5.305   1.689 -2.1406  2.4826 -3.1799
  193POPC  H14C25741   4.239   5.130   1.713  2.6327 -0.5729 -1.9874
  193POPC   C1525733   4.088   5.041   1.512  0.9641 -0.0238  0.6081
  193POPC  H15A25742   4.162   5.046   1.434  1.2400 -2.3446  0.6882
  193POPC  H15B25743   3.995   5.027   1.458  2.0355  1.3205 -1.6417
  193POPC  H15C25744   4.102   4.957   1.578 -3.6341 -2.4190 -1.2411
  193POPC   C1125745   4.007   5.108   1.822  0.1154  0.4560  0.0104
  193POPC  H11A25746   4.050   5.009   1.796 -1.1736 -0.7605  2.3183
  193POPC  H11B25747   3.918   5.083   1.884 -0.8070 -1.2845 -1.9561
  193POPC     P25748   4.144   5.108   2.037 -0.0238 -0.3195  0.0576
  193POPC   O1325749   4.254   5.182   2.102  0.0966 -0.1307 -0.3553
  193POPC   O1425750   4.180   4.972   1.990  0.1526 -0.2488 -0.0103
  193POPC   O1225751   4.094   5.185   1.906 -0.1044  0.2558  0.4265
  193POPC   O1125752   4.014   5.099   2.129 -0.2208 -0.3476 -0.2211
  193POPC    C125753   3.928   5.213   2.139  0.3081  0.0200  0.1202
  193POPC    HA25754   3.833   5.174   2.182  0.2967  0.9181  0.9321
  193POPC    HB25755   3.906   5.250   2.037  2.2568  0.9098  0.0058
  193POPC    C225756   3.984   5.316   2.240  0.5743  0.3049 -0.3187
  193POPC    HS25757   4.060   5.378   2.187 -1.5116  1.4483 -2.1030
  193POPC   O2125758   4.024   5.242   2.355 -0.3077  0.0398 -0.1739
  193POPC   C2125759   4.145   5.278   2.400 -0.5993  0.5284  0.2251
  193POPC   O2225760   4.219   5.356   2.342 -0.0919 -0.2792 -0.2159
  193POPC   C2225761   4.177   5.208   2.531  0.0863  0.1596 -0.1380
  193POPC   H2R25762   4.277   5.232   2.573 -0.4104 -0.3193  1.3530
  193POPC   H2S25763   4.157   5.099   2.526 -1.5344  0.1078  4.9119
  193POPC    C325764   3.877   5.420   2.279  0.1528 -0.1657 -0.2117
  193POPC    HX25765   3.779   5.371   2.297  0.1788 -0.0719  0.1928
  193POPC    HY25766   3.862   5.493   2.197  0.1672 -1.8719 -1.7506
  193POPC   O3125767   3.924   5.478   2.401 -0.4670  0.1682 -0.1309
  193POPC   C3125768   3.841   5.551   2.476 -0.3730 -0.1268  0.2693
  193POPC   O3225769   3.726   5.569   2.439 -0.1066  0.4096 -0.3195
  193POPC   C3225770   3.916   5.612   2.593 -0.1911  0.2145 -0.0241
  193POPC   H2X25771   3.980   5.692   2.550  1.9768 -1.2159  0.4976
  193POPC   H2Y25772   3.978   5.535   2.642 -2.2137  0.2680  2.7170
  193POPC   C2325773   4.077   5.250   2.639 -0.1586 -0.5140 -0.0984
  193POPC   H3R25774   3.973   5.265   2.603 -0.1020  1.1111  0.3475
  193POPC   H3S25775   4.112   5.354   2.656  0.9536 -0.4590 -2.5228
  193POPC   C2425776   4.065   5.152   2.756  0.5229 -0.2525  0.1949
  193POPC   H4R25777   4.160   5.184   2.803  0.0259  0.6658  0.6038
  193POPC   H4S25778   4.063   5.050   2.714  2.1673 -0.9666  1.7932
  193POPC   C2525779   3.941   5.169   2.845  0.5962  0.0976  0.2316
  193POPC   H5R25780   3.946   5.087   2.919  0.4421 -1.3030 -1.2788
  193POPC   H5S25781   3.856   5.140   2.781  1.1467  1.6544 -1.2372
  193POPC   C2625782   3.914   5.309   2.900 -0.0626  0.0457  0.0421
  193POPC   H6R25783   3.925   5.384   2.819 -2.1926 -0.1517 -0.4477
  193POPC   H6S25784   3.997   5.325   2.972  0.2972 -0.7015 -0.2017
  193POPC   C2725785   3.780   5.316   2.974 -0.0053 -0.4921  0.2004
  193POPC   H7R25786   3.700   5.307   2.898  1.8636 -3.5532 -1.4839
  193POPC   H7S25787   3.775   5.420   3.013  1.5891 -0.8010  1.2879
  193POPC   C2825788   3.776   5.220   3.093  0.2785 -0.5712  0.1445
  193POPC   H8R25789   3.780   5.116   3.053 -0.0350 -0.5797  0.1324
  193POPC   H8S25790   3.688   5.228   3.160  1.0595  1.6537  0.9346
  193POPC   C2925791   3.898   5.247   3.177  0.2531  0.2027 -0.0627
  193POPC   H9125792   3.974   5.168   3.167  0.9811  0.9774 -0.6527
  193POPC  C21025793   3.918   5.348   3.262 -0.4546  0.0517  0.2844
  193POPC  H10125794   4.016   5.348   3.312 -0.7288  0.6315  0.8303
  193POPC  C21125795   3.827   5.463   3.296 -0.3787  0.2838 -0.2782
  193POPC  H11R25796   3.719   5.445   3.276 -1.2424 -0.0390  4.0209
  193POPC  H11S25797   3.864   5.548   3.237  1.1486 -1.9737 -2.6643
  193POPC  C21225798   3.854   5.494   3.444 -0.0029  0.2548 -0.3408
  193POPC  H12R25799   3.962   5.520   3.449  0.1399 -0.5128  0.5373
  193POPC  H12S25800   3.831   5.395   3.487  0.6013 -0.1803 -1.0213
  193POPC  C21325801   3.759   5.604   3.493 -0.1420  0.1633 -0.4043
  193POPC  H13R25802   3.656   5.572   3.466  0.4070 -2.3458  0.2669
  193POPC  H13S25803   3.778   5.701   3.444 -1.9243  0.4313 -0.6130
  193POPC  C21425804   3.759   5.615   3.646  0.2368  0.4195 -0.4248
  193POPC  H14R25805   3.765   5.512   3.685  1.0896 -0.5450 -3.0207
  193POPC  H14S25806   3.659   5.655   3.673  0.5123  1.6825 -1.1903
  193POPC  C21525807   3.864   5.717   3.692  0.3249  0.0281  0.2418
  193POPC  H15R25808   3.847   5.813   3.638 -1.8977 -1.0788 -1.1298
  193POPC  H15S25809   3.966   5.680   3.670 -0.4824 -1.4711 -1.0776
  193POPC  C21625810   3.846   5.749   3.841  0.0503 -0.0631  0.2286
  193POPC  H16R25811   3.853   5.655   3.899  0.7910  0.1045  0.4172
  193POPC  H16S25812   3.751   5.800   3.867  0.2847 -0.4857  1.9384
  193POPC  C21725813   3.949   5.859   3.868 -0.3015  0.2809  0.1646
  193POPC  H17R25814   3.936   5.947   3.801 -1.4951  0.9296  1.2168
  193POPC  H17S25815   4.048   5.814   3.849  0.1666  0.9465  1.0245
  193POPC  C21825816   3.940   5.899   4.015  0.3317  0.2722  0.2067
  193POPC  H18R25817   3.959   5.802   4.065 -2.6333 -0.5957 -0.2461
  193POPC  H18S25818   3.840   5.940   4.042 -0.4151 -1.7885  0.6951
  193POPC  H18T25819   4.015   5.979   4.032 -0.4035  1.6241 -2.5783
  193POPC   C3325820   3.823   5.670   2.700  0.4791 -0.2433  0.8160
  193POPC   H3X25821   3.780   5.587   2.759  1.1947 -1.4060 -0.2702
  193POPC   H3Y25822   3.736   5.710   2.644 -0.6882  0.0056  2.7603
  193POPC   C3425823   3.899   5.767   2.790  0.2399  0.1979  0.5455
  193POPC   H4X25824   3.951   5.839   2.724  0.9340  0.0381  0.9167
  193POPC   H4Y25825   3.983   5.710   2.835  0.2352 -2.4579 -2.6381
  193POPC   C3525826   3.819   5.848   2.893  0.3426  0.1341  0.6759
  193POPC   H5X25827   3.754   5.923   2.844  2.7550  3.3036  2.1259
  193POPC   H5Y25828   3.884   5.903   2.965 -1.2518  1.1522  1.3643
  193POPC   C3625829   3.731   5.768   2.989 -0.4260 -0.1530 -0.2677
  193POPC   H6X25830   3.791   5.693   3.044  1.7655  1.5368 -0.3159
  193POPC   H6Y25831   3.656   5.710   2.931 -0.7157 -0.8408  0.7840
  193POPC   C3725832   3.664   5.871   3.081  0.3718 -0.2760  0.4451
  193POPC   H7X25833   3.610   5.950   3.025  1.5786  0.6879  0.6222
  193POPC   H7Y25834   3.742   5.927   3.137  1.9956  0.6606 -2.6287
  193POPC   C3825835   3.564   5.803   3.174  0.2898  0.2734  0.7555
  193POPC   H8X25836   3.628   5.740   3.240 -1.1051 -0.4704  1.4273
  193POPC   H8Y25837   3.486   5.738   3.128  0.0122  1.2784 -0.2034
  193POPC   C3925838   3.480   5.912   3.243 -0.2959  0.0623  0.3800
  193POPC   H9X25839   3.395   5.939   3.178 -0.8865 -0.3073  0.9988
  193POPC   H9Y25840   3.556   5.991   3.261 -0.9254  1.0080 -1.0070
  193POPC  C31025841   3.422   5.873   3.379 -1.2342  0.2506  0.0331
  193POPC  H10X25842   3.349   5.951   3.409 -0.8953 -0.4262  2.6644
  193POPC  H10Y25843   3.506   5.872   3.451 -2.4151  0.4369  1.4382
  193POPC  C31125844   3.356   5.736   3.369 -0.3083 -0.1741 -0.2429
  193POPC  H11X25845   3.437   5.661   3.354 -1.2370 -1.4618  1.0179
  193POPC  H11Y25846   3.302   5.725   3.273  0.0063 -2.0250 -0.2300
  193POPC  C31225847   3.275   5.686   3.489  0.0866 -0.3115 -0.0318
  193POPC  H12X25848   3.215   5.776   3.515  0.3234 -0.3405  0.6230
  193POPC  H12Y25849   3.345   5.660   3.571  2.2885  0.6755 -1.5529
  193POPC  C31325850   3.200   5.554   3.469 -0.2334 -0.1177 -0.1090
  193POPC  H13X25851   3.270   5.470   3.450  1.1229  1.0610 -0.4140
  193POPC  H13Y25852   3.123   5.564   3.390 -0.8740  0.8347  0.6253
  193POPC  C31425853   3.137   5.529   3.606  0.1120 -0.4649 -0.0133
  193POPC  H14X25854   3.099   5.624   3.650 -1.2885 -0.5265 -1.0911
  193POPC  H14Y25855   3.215   5.486   3.673  0.7827  2.5144  1.2305
  193POPC  C31525856   3.015   5.438   3.601  0.0693 -0.4068 -0.0277
  193POPC  H15X25857   3.040   5.344   3.547  1.6448  1.6062 -2.9222
  193POPC  H15Y25858   2.940   5.491   3.539 -2.1989 -1.8577  1.4084
  193POPC  C31625859   2.941   5.418   3.734 -0.1363 -0.3387 -0.1322
  193POPC  H16X25860   2.875   5.507   3.744  1.3166  0.7618 -0.0356
  193POPC  H16Y25861   3.010   5.426   3.820  2.0972  2.2524 -2.0597
  193POPC  H16Z25862   2.886   5.322   3.730 -0.2473 -0.2540 -0.6764
  194POPC     N25863   3.643   5.927   1.949 -0.0980 -0.4327  0.2082
  194POPC   C1225864   3.694   5.861   2.075  0.3493  0.4857  0.5136
  194POPC  H12A25868   3.603   5.828   2.122  0.7993  0.1344  1.1496
  194POPC  H12B25869   3.730   5.923   2.156 -0.9355  0.1847  1.3254
  194POPC   C1325865   3.758   5.953   1.854 -0.8228 -0.4228 -0.6806
  194POPC  H13A25870   3.844   5.986   1.911 -0.9059  0.2595 -0.9516
  194POPC  H13B25871   3.787   5.871   1.790 -0.9054 -1.4238  0.5462
  194POPC  H13C25872   3.735   6.034   1.787  1.6295  0.0833 -0.9765
  194POPC   C1425866   3.543   5.842   1.874  0.3030 -0.4915 -0.2675
  194POPC  H14A25873   3.449   5.835   1.926 -0.3924 -0.5187 -1.5233
  194POPC  H14B25874   3.527   5.882   1.776  2.0325  0.4400 -0.1880
  194POPC  H14C25875   3.580   5.741   1.864  3.6409  0.4380  1.8340
  194POPC   C1525867   3.576   6.054   1.994  0.3030 -0.4052  0.7429
  194POPC  H15A25876   3.499   6.044   2.069 -0.6105  1.7402  0.1548
  194POPC  H15B25877   3.526   6.094   1.906  1.4957  1.2334  0.7908
  194POPC  H15C25878   3.639   6.131   2.036  0.6282  0.1824 -0.7873
  194POPC   C1125879   3.794   5.746   2.060  0.1064  0.2440  0.7333
  194POPC  H11A25880   3.763   5.669   1.986  0.5909 -0.3430  1.1374
  194POPC  H11B25881   3.813   5.694   2.156 -1.4606  1.0446  1.4911
  194POPC     P25882   4.056   5.737   2.058  0.0886  0.1879  0.2039
  194POPC   O1325883   4.170   5.787   1.979  0.1105 -0.1034  0.0513
  194POPC   O1425884   4.050   5.590   2.073  0.2143  0.1758  0.1290
  194POPC   O1225885   3.917   5.802   2.012  0.0178  0.2800  0.5452
  194POPC   O1125886   4.081   5.791   2.207  0.3296  0.4687  0.0611
  194POPC    C125887   4.025   5.911   2.261  0.2540  0.6600 -0.4420
  194POPC    HA25888   3.935   5.885   2.321  0.3586  0.6768 -0.2802
  194POPC    HB25889   3.980   5.971   2.179 -1.4204 -0.0121 -0.0410
  194POPC    C225890   4.128   5.982   2.349 -0.0614 -0.0540  0.5163
  194POPC    HS25891   4.209   6.004   2.276  0.3859 -0.2760  0.9381
  194POPC   O2125892   4.175   5.884   2.441  0.1423 -0.0334  0.4351
  194POPC   C2125893   4.294   5.905   2.499  0.1110  0.5515  0.2814
  194POPC   O2225894   4.362   6.004   2.477  0.8044  0.0278  0.0555
  194POPC   C2225895   4.323   5.780   2.581 -0.1710  0.2212 -0.1206
  194POPC   H2R25896   4.431   5.755   2.577 -0.3540 -0.5250 -0.6607
  194POPC   H2S25897   4.264   5.693   2.546 -0.4898  0.6869 -0.7444
  194POPC    C325898   4.098   6.119   2.412  0.3123  0.1352  0.2932
  194POPC    HX25899   4.049   6.183   2.336  0.6837  0.3045  0.1983
  194POPC    HY25900   4.193   6.169   2.441 -0.6013  1.4923  1.0270
  194POPC   O3125901   4.015   6.100   2.528 -0.1918 -0.4859 -0.1646
  194POPC   C3125902   3.887   6.130   2.505  0.1423  1.0136 -0.1467
  194POPC   O3225903   3.838   6.161   2.398 -0.2850  0.7224 -0.0369
  194POPC   C3225904   3.815   6.148   2.638  0.2472 -0.0205  0.0572
  194POPC   H2X25905   3.896   6.160   2.713  3.3222 -0.3315 -3.1034
  194POPC   H2Y25906   3.765   6.051   2.660 -0.4391  0.4119  0.4008
  194POPC   C2325907   4.290   5.804   2.728 -0.2871 -0.2893 -0.0621
  194POPC   H3R25908   4.191   5.854   2.733 -1.5127 -2.3776 -2.3761
  194POPC   H3S25909   4.364   5.872   2.776  1.1248 -1.8585  0.0512
  194POPC   C2425910   4.276   5.675   2.809 -0.0035  0.1357  0.6722
  194POPC   H4R25911   4.379   5.634   2.809  0.5215  1.4221 -0.0957
  194POPC   H4S25912   4.210   5.607   2.751  0.9331  0.7539 -1.1467
  194POPC   C2525913   4.237   5.683   2.957  0.3077 -0.1544  0.7691
  194POPC   H5R25914   4.144   5.739   2.977  0.4618 -0.4010  2.2397
  194POPC   H5S25915   4.320   5.734   3.011  0.5413 -0.3898  0.6373
  194POPC   C2625916   4.213   5.545   3.019  0.1335 -0.3698  0.2329
  194POPC   H6R25917   4.118   5.505   2.977  1.1219 -0.4794 -1.9554
  194POPC   H6S25918   4.202   5.561   3.129  2.3557 -1.1601  0.5964
  194POPC   C2725919   4.329   5.449   2.997  0.2485 -0.1795  0.0085
  194POPC   H7R25920   4.419   5.499   3.039  0.8950 -0.0727 -1.4433
  194POPC   H7S25921   4.327   5.428   2.887 -1.9601 -0.1773  0.0300
  194POPC   C2825922   4.289   5.320   3.069  0.2218 -0.0869  0.1582
  194POPC   H8R25923   4.200   5.278   3.017 -0.1082  0.4882  0.2637
  194POPC   H8S25924   4.281   5.353   3.174 -0.0316 -1.2495  0.5170
  194POPC   C2925925   4.382   5.202   3.079 -0.0638 -0.3172  0.1122
  194POPC   H9125926   4.454   5.194   2.996 -1.1182  0.6729 -0.9156
  194POPC  C21025927   4.382   5.119   3.184  0.0719  0.0041  0.3687
  194POPC  H10125928   4.448   5.031   3.174 -0.6426 -0.5497  0.4702
  194POPC  C21125929   4.286   5.111   3.299  0.1471  0.0807  0.4371
  194POPC  H11R25930   4.209   5.030   3.290  0.2605 -0.0126  0.3011
  194POPC  H11S25931   4.229   5.203   3.321  1.8564  1.6591 -1.4889
  194POPC  C21225932   4.378   5.074   3.415  0.9402 -0.2046 -0.2756
  194POPC  H12R25933   4.468   5.139   3.408  0.2310  1.0423  1.6990
  194POPC  H12S25934   4.406   4.967   3.410 -2.2857 -1.2903  2.6733
  194POPC  C21325935   4.330   5.108   3.557  0.3280  0.5029 -0.6481
  194POPC  H13R25936   4.404   5.059   3.624 -0.3184  1.3844  0.7267
  194POPC  H13S25937   4.228   5.072   3.581  0.6841 -2.4369 -3.1718
  194POPC  C21425938   4.336   5.258   3.584  1.0138  0.3682 -0.0433
  194POPC  H14R25939   4.273   5.310   3.509 -0.6396  2.4968  2.6956
  194POPC  H14S25940   4.440   5.287   3.558  1.1638 -0.2465 -0.1325
  194POPC  C21525941   4.295   5.295   3.727  0.2541  0.1498 -0.2024
  194POPC  H15R25942   4.374   5.265   3.799  0.2974  0.3782 -0.1569
  194POPC  H15S25943   4.205   5.233   3.751  0.1508  0.2523 -0.3244
  194POPC  C21625944   4.278   5.446   3.744  0.4772  0.1991 -0.4056
  194POPC  H16R25945   4.190   5.492   3.693 -1.0870 -0.1669  1.8688
  194POPC  H16S25946   4.379   5.482   3.716  0.6924 -0.1422 -0.0743
  194POPC  C21725947   4.271   5.486   3.892  0.1254 -0.7952 -0.1413
  194POPC  H17R25948   4.274   5.598   3.890 -1.5557 -0.7450 -0.1054
  194POPC  H17S25949   4.366   5.461   3.943 -0.4727 -0.3640  1.2076
  194POPC  C21825950   4.147   5.426   3.958 -0.1516  0.0691  0.1332
  194POPC  H18R25951   4.167   5.319   3.939 -2.8131 -0.3137 -0.5844
  194POPC  H18S25952   4.049   5.456   3.916 -1.3809  0.0356  2.8456
  194POPC  H18T25953   4.143   5.456   4.065  0.2401 -1.1264  0.4881
  194POPC   C3325954   3.718   6.266   2.644  0.0704 -0.2026  0.9062
  194POPC   H3X25955   3.627   6.255   2.581  1.7405 -1.3139 -1.3575
  194POPC   H3Y25956   3.767   6.355   2.598  2.4469 -0.9969  1.8461
  194POPC   C3425957   3.657   6.296   2.781 -0.8242 -0.5434  0.5857
  194POPC   H4X25958   3.581   6.215   2.790  0.8630 -2.2618 -0.1422
  194POPC   H4Y25959   3.613   6.398   2.774 -2.3366 -1.3091 -1.7308
  194POPC   C3525960   3.756   6.288   2.897 -0.2162  0.0371  0.1090
  194POPC   H5X25961   3.839   6.363   2.894 -0.5922  0.4313 -0.5155
  194POPC   H5Y25962   3.803   6.187   2.906 -0.8816 -0.4781 -1.8875
  194POPC   C3625963   3.674   6.316   3.023 -0.6759  0.3602 -0.2602
  194POPC   H6X25964   3.591   6.243   3.036 -1.1868  1.2987  1.9254
  194POPC   H6Y25965   3.630   6.418   3.019  2.3080  1.7961  1.3090
  194POPC   C3725966   3.750   6.322   3.156  0.3971 -0.7713 -0.8081
  194POPC   H7X25967   3.826   6.403   3.146 -3.2427  2.8671 -0.3222
  194POPC   H7Y25968   3.807   6.229   3.179 -0.1891 -0.5585  1.6213
  194POPC   C3825969   3.661   6.346   3.278  0.8107 -0.1210 -0.6292
  194POPC   H8X25970   3.605   6.250   3.287  0.8703 -0.1494 -0.5524
  194POPC   H8Y25971   3.594   6.431   3.252  1.2172  0.0745 -1.0489
  194POPC   C3925972   3.733   6.359   3.413 -1.1455  0.1658  0.4050
  194POPC   H9X25973   3.796   6.267   3.416 -1.3089  0.0293 -0.2142
  194POPC   H9Y25974   3.653   6.340   3.488 -0.7619  1.0602  1.0416
  194POPC  C31025975   3.828   6.475   3.443 -0.1844 -0.5797  0.2725
  194POPC  H10X25976   3.765   6.563   3.469  1.2566 -0.1084  2.2595
  194POPC  H10Y25977   3.887   6.506   3.355  0.0741 -0.6154  0.4323
  194POPC  C31125978   3.933   6.453   3.553  0.2413 -0.1785 -0.0512
  194POPC  H11X25979   4.014   6.527   3.566 -1.2231  1.1418  1.8990
  194POPC  H11Y25980   3.992   6.364   3.522  1.4952  0.2603  1.0354
  194POPC  C31225981   3.862   6.430   3.687  0.3531  0.2591  0.0819
  194POPC  H12X25982   3.790   6.348   3.668  0.1385  0.7420 -1.3168
  194POPC  H12Y25983   3.809   6.521   3.724 -0.5088 -0.3395  0.3344
  194POPC  C31325984   3.948   6.387   3.805 -0.2477 -0.0516  0.4072
  194POPC  H13X25985   3.993   6.288   3.783  0.4047 -0.2956  2.6890
  194POPC  H13Y25986   3.891   6.369   3.899  0.8361  0.5288  1.1839
  194POPC  C31425987   4.061   6.481   3.848  0.0875 -0.3022  0.0762
  194POPC  H14X25988   4.131   6.512   3.767  1.1622 -1.6373  0.4816
  194POPC  H14Y25989   4.113   6.425   3.928 -3.5522 -1.6394  1.6237
  194POPC  C31525990   4.003   6.601   3.923  0.1678 -0.1577 -0.0964
  194POPC  H15X25991   3.954   6.553   4.010  0.9933  0.5881  0.7970
  194POPC  H15Y25992   3.928   6.651   3.859 -0.6252 -0.8584  0.2868
  194POPC  C31625993   4.086   6.715   3.983 -0.8476  0.4789  0.1081
  194POPC  H16X25994   4.021   6.786   4.039  0.3771  1.5529  0.2075
  194POPC  H16Y25995   4.136   6.763   3.896 -1.6119  2.4300  0.7069
  194POPC  H16Z25996   4.161   6.672   4.053 -1.3492 -2.8812 -1.3149
  195POPC     N25997   7.522   2.834   1.988  0.1689 -0.5145 -0.2629
  195POPC   C1225998   7.551   2.744   2.106  0.1820  0.0697  0.1811
  195POPC  H12A26002   7.648   2.776   2.142 -0.2891  1.0271  0.6122
  195POPC  H12B26003   7.563   2.645   2.065  1.3335  0.9579 -1.6870
  195POPC   C1325999   7.402   2.780   1.914 -0.2252 -0.3687  0.2700
  195POPC  H13A26004   7.418   2.689   1.858  1.1941 -0.1560  0.3139
  195POPC  H13B26005   7.320   2.750   1.978  1.9455 -0.7825  2.9709
  195POPC  H13C26006   7.360   2.849   1.843 -0.7161 -2.1308 -1.1795
  195POPC   C1426000   7.512   2.979   2.030 -0.2663 -0.8271  0.7377
  195POPC  H14A26007   7.455   2.978   2.121  0.2230 -0.9317  1.0442
  195POPC  H14B26008   7.606   3.026   2.054  0.4463 -1.7313 -0.2487
  195POPC  H14C26009   7.464   3.043   1.958  0.5944 -0.0978  0.8033
  195POPC   C1526001   7.632   2.827   1.885  0.0906  0.6118 -0.4260
  195POPC  H15A26010   7.729   2.845   1.929 -1.3834  2.0188  2.3656
  195POPC  H15B26011   7.600   2.892   1.804 -1.9246 -0.4734 -0.5485
  195POPC  H15C26012   7.641   2.726   1.847 -1.8099 -0.4962  1.9535
  195POPC   C1126013   7.454   2.744   2.225 -0.1497  0.2663 -0.0883
  195POPC  H11A26014   7.456   2.844   2.274  1.2496  0.0658  0.3032
  195POPC  H11B26015   7.476   2.673   2.307 -0.8604  0.0673 -0.0714
  195POPC     P26016   7.208   2.743   2.281 -0.2089  0.1974 -0.2936
  195POPC   O1326017   7.085   2.672   2.239 -0.1228  0.0956 -0.3736
  195POPC   O1426018   7.199   2.888   2.305  0.6996  0.2050  0.0428
  195POPC   O1226019   7.324   2.716   2.173 -0.0611 -0.2745 -0.0177
  195POPC   O1126020   7.270   2.671   2.410 -0.3003  0.3692 -0.1537
  195POPC    C126021   7.202   2.563   2.475  0.0204  0.3706  0.1808
  195POPC    HA26022   7.276   2.520   2.547 -0.2211 -1.0916 -0.4280
  195POPC    HB26023   7.184   2.488   2.395  1.3040  1.3959 -1.1124
  195POPC    C226024   7.062   2.583   2.535 -0.3157  0.1453 -0.5202
  195POPC    HS26025   6.994   2.619   2.455 -0.7256  1.6318  0.4605
  195POPC   O2126026   7.064   2.670   2.649 -0.0948 -0.0290 -0.3898
  195POPC   C2126027   6.950   2.728   2.688 -0.0545 -0.4215  0.3184
  195POPC   O2226028   6.843   2.703   2.635  0.4064  0.3532 -1.0141
  195POPC   C2226029   6.971   2.823   2.805  0.1279 -0.4340  0.2958
  195POPC   H2R26030   6.908   2.913   2.792  1.5105  0.1331 -2.8272
  195POPC   H2S26031   7.069   2.869   2.784 -0.4896 -0.5557 -3.1709
  195POPC    C326032   7.012   2.443   2.575  0.2739  0.1359  0.2059
  195POPC    HX26033   7.014   2.376   2.486 -1.1899  0.8962 -0.4163
  195POPC    HY26034   6.903   2.440   2.597 -0.3540 -0.3837 -2.6537
  195POPC   O3126035   7.103   2.381   2.666  0.1023 -0.0371  0.2580
  195POPC   C3126036   7.055   2.373   2.790 -0.1969  0.1567  0.1562
  195POPC   O3226037   6.945   2.419   2.817 -0.2455  0.2097 -0.1308
  195POPC   C3226038   7.161   2.303   2.874 -0.3447 -0.3743 -0.0927
  195POPC   H2X26039   7.262   2.338   2.845  0.5790 -1.7216  1.4147
  195POPC   H2Y26040   7.155   2.193   2.862 -0.8555 -0.3807  0.2005
  195POPC   C2326041   6.949   2.752   2.939 -0.1078 -0.1407  0.4126
  195POPC   H3R26042   7.014   2.812   3.006 -0.2802  0.9086 -0.3362
  195POPC   H3S26043   6.987   2.648   2.942 -1.9697 -0.9479 -1.9554
  195POPC   C2426044   6.801   2.762   2.979 -0.3079 -0.5521 -0.2070
  195POPC   H4R26045   6.752   2.700   2.901 -1.6027 -1.6785  1.4723
  195POPC   H4S26046   6.775   2.870   2.978 -0.7255 -0.6419  0.6860
  195POPC   C2526047   6.779   2.696   3.115  0.1396 -0.0533  0.1136
  195POPC   H5R26048   6.805   2.588   3.102  0.3353  0.0895 -0.7378
  195POPC   H5S26049   6.670   2.698   3.133 -0.1728  0.6323 -1.7317
  195POPC   C2626050   6.857   2.744   3.237 -0.1730  0.4097  0.1300
  195POPC   H6R26051   6.864   2.855   3.231  1.5375  0.3443  0.5775
  195POPC   H6S26052   6.961   2.704   3.240 -0.9587 -1.6763  0.2456
  195POPC   C2726053   6.788   2.684   3.359  0.1701  0.4068  0.3235
  195POPC   H7R26054   6.742   2.587   3.333 -0.2886  0.9452 -0.9039
  195POPC   H7S26055   6.700   2.749   3.380 -0.5855 -0.3619 -0.4208
  195POPC   C2826056   6.877   2.663   3.481  0.4881 -0.3219 -0.0329
  195POPC   H8R26057   6.938   2.755   3.497 -0.0603 -0.2772  1.9535
  195POPC   H8S26058   6.939   2.575   3.452  1.6794  0.1257  1.0569
  195POPC   C2926059   6.798   2.616   3.600 -0.0012 -0.5788 -0.4601
  195POPC   H9126060   6.694   2.585   3.579 -1.6647  2.9409  2.1081
  195POPC  C21026061   6.838   2.615   3.728 -0.1674  0.2665 -0.3980
  195POPC  H10126062   6.767   2.568   3.798 -0.0758  1.9560  0.8420
  195POPC  C21126063   6.975   2.651   3.778 -0.2282  0.1695 -0.1610
  195POPC  H11R26064   7.025   2.725   3.713  0.2930  0.4907  0.5995
  195POPC  H11S26065   7.046   2.566   3.777 -0.3473  0.0736 -0.6593
  195POPC  C21226066   6.967   2.716   3.916  0.0737  0.2415 -0.1785
  195POPC  H12R26067   6.915   2.649   3.987  2.8419 -2.9047 -0.9835
  195POPC  H12S26068   6.904   2.807   3.915 -1.2030 -0.5474  2.9575
  195POPC  C21326069   7.097   2.753   3.988  0.1374  0.0779 -0.2080
  195POPC  H13R26070   7.135   2.856   3.969 -2.3597  1.2785  1.0468
  195POPC  H13S26071   7.173   2.674   3.971  1.0148  0.7878  0.3477
  195POPC  C21426072   7.073   2.742   4.139 -0.2354  0.4328 -0.2397
  195POPC  H14R26073   7.048   2.636   4.162 -0.3992  0.2372 -1.2557
  195POPC  H14S26074   7.001   2.817   4.178  0.8245  1.8743 -0.9836
  195POPC  C21526075   7.200   2.779   4.215  0.1321 -0.4557 -0.4190
  195POPC  H15R26076   7.211   2.887   4.190 -0.2997 -0.0629  1.0387
  195POPC  H15S26077   7.285   2.719   4.174  0.6340  0.5479 -0.8907
  195POPC  C21626078   7.188   2.756   4.365 -0.2738 -0.4236 -0.4476
  195POPC  H16R26079   7.276   2.806   4.411 -0.0867 -0.7674 -0.4329
  195POPC  H16S26080   7.208   2.652   4.398 -1.0283 -0.2016  0.7710
  195POPC  C21726081   7.054   2.795   4.430 -0.1713 -0.3390 -0.2875
  195POPC  H17R26082   7.052   2.749   4.531 -3.2056  2.6608  1.1063
  195POPC  H17S26083   6.969   2.747   4.378 -1.7361 -0.2112  2.0839
  195POPC  C21826084   7.023   2.944   4.437  0.7195 -0.1586 -0.0102
  195POPC  H18R26085   7.087   2.995   4.512  1.2719  0.7967 -1.1112
  195POPC  H18S26086   6.915   2.960   4.461  0.7727 -0.3134  0.3362
  195POPC  H18T26087   7.043   2.997   4.341 -0.4165 -0.4946 -0.4425
  195POPC   C3326088   7.151   2.318   3.026 -0.0733 -0.0515 -0.1049
  195POPC   H3X26089   7.111   2.419   3.045  1.3809  0.0176  2.7910
  195POPC   H3Y26090   7.252   2.324   3.071  0.1866  1.7506 -0.8875
  195POPC   C3426091   7.060   2.212   3.089  0.2648 -0.2560  0.0434
  195POPC   H4X26092   7.011   2.155   3.007 -0.6569  1.9095 -0.9445
  195POPC   H4Y26093   6.989   2.261   3.159 -1.4930 -2.4633 -0.1220
  195POPC   C3526094   7.145   2.112   3.168 -0.3953 -0.6501  0.2546
  195POPC   H5X26095   7.215   2.065   3.095 -0.2178  0.1429 -0.0880
  195POPC   H5Y26096   7.076   2.027   3.190 -3.2195  1.3324 -0.5828
  195POPC   C3626097   7.214   2.165   3.293 -0.1901 -0.1209 -0.0807
  195POPC   H6X26098   7.265   2.260   3.265 -0.5812 -0.3113 -1.4811
  195POPC   H6Y26099   7.293   2.088   3.306  0.0073 -0.2163 -1.7575
  195POPC   C3726100   7.128   2.186   3.418 -0.0167 -0.0857  0.0329
  195POPC   H7X26101   7.081   2.088   3.441  0.2052 -0.1320  0.2896
  195POPC   H7Y26102   7.053   2.267   3.404 -1.0773 -0.7606  1.6143
  195POPC   C3826103   7.221   2.223   3.534 -0.3244  0.5227  0.0868
  195POPC   H8X26104   7.240   2.332   3.528  1.6344  0.0995 -2.0037
  195POPC   H8Y26105   7.316   2.167   3.521 -1.6954 -1.5649 -1.1941
  195POPC   C3926106   7.153   2.205   3.670  0.2366 -0.1267  0.2871
  195POPC   H9X26107   7.134   2.096   3.668  0.2665 -0.1263 -0.3460
  195POPC   H9Y26108   7.060   2.266   3.667 -0.0903 -0.6821 -4.6921
  195POPC  C31026109   7.239   2.243   3.791  0.5243  0.0023  0.0441
  195POPC  H10X26110   7.300   2.334   3.775  1.9834 -0.9383  0.2334
  195POPC  H10Y26111   7.308   2.156   3.797  1.1662  0.3908 -1.4236
  195POPC  C31126112   7.173   2.273   3.926 -0.3292 -0.2625 -0.3079
  195POPC  H11X26113   7.095   2.350   3.909  0.8674  0.8003 -1.1267
  195POPC  H11Y26114   7.240   2.322   4.000 -1.0295  1.3067 -0.7051
  195POPC  C31226115   7.088   2.166   3.995 -0.0836  0.1061  0.5723
  195POPC  H12X26116   7.163   2.088   4.019  2.8791  2.0227 -2.0848
  195POPC  H12Y26117   7.013   2.121   3.926 -0.7851  0.7457  0.9080
  195POPC  C31326118   7.007   2.199   4.121 -0.5627  0.2167  0.2360
  195POPC  H13X26119   6.969   2.106   4.168 -0.6972  1.0113  1.7060
  195POPC  H13Y26120   6.920   2.258   4.084  0.6780  0.2844 -2.7283
  195POPC  C31426121   7.086   2.271   4.229 -0.5870  0.4213  0.1159
  195POPC  H14X26122   7.118   2.376   4.208 -0.5183  0.2914 -0.4306
  195POPC  H14Y26123   7.172   2.205   4.254 -1.1616 -0.4400 -0.1903
  195POPC  C31526124   7.003   2.282   4.357 -0.1844 -0.8693  0.4868
  195POPC  H15X26125   6.980   2.180   4.396 -0.9073 -0.8150  0.2133
  195POPC  H15Y26126   6.909   2.339   4.341  0.7307  1.1305  2.1664
  195POPC  C31626127   7.063   2.368   4.467  0.0213 -0.3188 -0.0558
  195POPC  H16X26128   7.074   2.477   4.445  0.3268 -0.7885 -2.2586
  195POPC  H16Y26129   7.160   2.347   4.516 -0.8653  0.5000  2.1272
  195POPC  H16Z26130   6.984   2.367   4.545 -0.3296 -0.1246 -0.4056
  196POPC     N26131   0.530   0.632   1.904  0.4947 -0.1724 -0.0671
  196POPC   C1226132   0.513   0.642   2.054 -0.1632 -0.2520 -0.1347
  196POPC  H12A26136   0.597   0.702   2.088  0.4004 -2.1419  1.9168
  196POPC  H12B26137   0.541   0.545   2.092  1.4557 -0.8664 -2.7480
  196POPC   C1326133   0.501   0.768   1.845  0.1329 -0.0319  0.4336
  196POPC  H13A26138   0.582   0.833   1.875  0.3805  0.5097 -1.3667
  196POPC  H13B26139   0.484   0.751   1.740 -2.1472  1.8934  0.4289
  196POPC  H13C26140   0.405   0.803   1.882  0.4072 -0.7109  1.7896
  196POPC   C1426134   0.673   0.605   1.862  0.8733  0.5089  0.7547
  196POPC  H14A26141   0.680   0.590   1.755  0.8714 -1.0209  0.9656
  196POPC  H14B26142   0.741   0.682   1.895  1.4568  0.3805 -0.1588
  196POPC  H14C26143   0.708   0.511   1.902 -0.4833  0.3292  1.5538
  196POPC   C1526135   0.449   0.522   1.841  0.0296  0.1308 -0.0002
  196POPC  H15A26144   0.466   0.522   1.735 -2.8694  1.4877 -0.5254
  196POPC  H15B26145   0.347   0.556   1.849 -0.5576 -1.7822  0.9065
  196POPC  H15C26146   0.473   0.427   1.887 -1.1831 -0.8766 -1.4025
  196POPC   C1126147   0.378   0.680   2.115 -0.1268  0.3260 -0.4087
  196POPC  H11A26148   0.392   0.671   2.225 -0.0164 -1.8866 -0.5787
  196POPC  H11B26149   0.299   0.610   2.082  0.0325  1.0091 -2.2956
  196POPC     P26150   0.252   0.896   2.181  0.0525  0.3592 -0.1087
  196POPC   O1326151   0.154   0.983   2.112 -0.4181  0.3067  0.4860
  196POPC   O1426152   0.334   0.964   2.283  0.0048 -0.3041  0.3791
  196POPC   O1226153   0.348   0.816   2.081  0.3446  0.5397  0.0287
  196POPC   O1126154   0.179   0.774   2.256  0.2153  0.0821 -0.3995
  196POPC    C126155   0.069   0.816   2.337  0.4877  0.6285 -0.3088
  196POPC    HA26156   0.001   0.729   2.351 -2.1725  2.4451 -1.6319
  196POPC    HB26157   0.006   0.889   2.282  1.9337  0.4047 -2.3547
  196POPC    C226158   0.118   0.863   2.475  0.1089  0.0749  0.0150
  196POPC    HS26159   0.191   0.943   2.454 -1.5424  1.0028 -2.3716
  196POPC   O2126160   0.170   0.739   2.525  0.1201  0.0093 -0.1593
  196POPC   C2126161   0.280   0.755   2.599  0.5887 -0.7157 -0.6973
  196POPC   O2226162   0.332   0.865   2.608 -0.2026 -0.3651 -0.3302
  196POPC   C2226163   0.321   0.623   2.663  0.5667 -0.0902  0.6186
  196POPC   H2R26164   0.408   0.579   2.610  0.6400 -0.1834  0.8173
  196POPC   H2S26165   0.238   0.550   2.651  1.4764 -1.1126  0.5346
  196POPC    C326166   0.019   0.918   2.579  0.0635 -0.2229  0.1304
  196POPC    HX26167   7.898   0.848   2.601 -0.9367  0.8690  0.0610
  196POPC    HY26168   7.940   1.013   2.540 -0.2314 -0.6854 -0.7325
  196POPC   O3126169   0.088   0.947   2.701 -0.0262 -0.4321  0.2318
  196POPC   C3126170   0.007   0.986   2.799  0.3469  0.3832  0.2228
  196POPC   O3226171   7.849   1.009   2.789  0.2467 -0.1856 -0.3947
  196POPC   C3226172   0.092   1.001   2.924  0.4193  0.3197  0.1809
  196POPC   H2X26173   0.199   0.977   2.908  0.1618  1.1342 -2.9769
  196POPC   H2Y26174   0.058   0.926   2.999 -0.0668 -3.2467 -3.4701
  196POPC   C2326175   0.350   0.650   2.810  0.3549  0.8514  0.4921
  196POPC   H3R26176   0.400   0.750   2.813  0.6631  0.7003  0.4174
  196POPC   H3S26177   0.428   0.582   2.851  0.5291  1.0406  0.4776
  196POPC   C2426178   0.228   0.654   2.902 -0.0445 -0.5613  0.0235
  196POPC   H4R26179   0.190   0.550   2.913 -0.5169 -0.2896  1.0613
  196POPC   H4S26180   0.147   0.720   2.864  0.9196  1.2886  1.1557
  196POPC   C2526181   0.256   0.702   3.044 -0.2552 -0.0644 -0.1026
  196POPC   H5R26182   0.166   0.693   3.108 -0.1530  1.1029  0.2297
  196POPC   H5S26183   0.285   0.809   3.033 -0.5595 -0.1193 -1.4940
  196POPC   C2626184   0.374   0.638   3.117 -0.1748  0.3127  0.1014
  196POPC   H6R26185   0.470   0.652   3.063  0.3912 -0.1539  0.9682
  196POPC   H6S26186   0.361   0.528   3.112  0.5025  0.1358  1.7982
  196POPC   C2726187   0.384   0.680   3.264  0.3838  0.3268  0.0597
  196POPC   H7R26188   0.443   0.599   3.313 -2.2997 -1.9734 -0.3642
  196POPC   H7S26189   0.282   0.684   3.308  0.2860 -2.0153  0.1037
  196POPC   C2826190   0.462   0.810   3.285  0.4422  0.3630 -0.3689
  196POPC   H8R26191   0.390   0.885   3.246  1.3073  2.5426  2.0242
  196POPC   H8S26192   0.552   0.825   3.223  1.3478  3.0987  1.5089
  196POPC   C2926193   0.502   0.840   3.427  0.3665 -0.1983 -0.2294
  196POPC   H9126194   0.594   0.788   3.458  1.5871  1.1684 -1.4945
  196POPC  C21026195   0.434   0.917   3.513 -0.0165 -0.7946  0.0047
  196POPC  H10126196   0.485   0.944   3.607 -1.1466  0.1674  0.3450
  196POPC  C21126197   0.310   0.997   3.488  0.2030 -0.4596  0.0004
  196POPC  H11R26198   0.301   1.010   3.378 -0.3299  0.6936  0.1681
  196POPC  H11S26199   0.311   1.095   3.541  1.6236 -0.8745  0.7826
  196POPC  C21226200   0.195   0.919   3.551 -0.2610  0.5114  0.3773
  196POPC  H12R26201   0.191   0.888   3.657  0.4256  0.8244  0.4994
  196POPC  H12S26202   0.200   0.825   3.491 -0.6081  1.3712 -1.0324
  196POPC  C21326203   0.063   0.986   3.513 -0.2525  0.3995  0.1480
  196POPC  H13R26204   0.074   1.089   3.474  0.9415  0.1972 -0.0728
  196POPC  H13S26205   7.942   0.978   3.587 -2.0047  1.7994 -1.6049
  196POPC  C21426206   7.953   0.908   3.402  0.1568 -0.0761  0.1869
  196POPC  H14R26207   7.918   0.809   3.439 -1.3271 -0.1223 -1.3097
  196POPC  H14S26208   0.070   0.883   3.328  0.9793 -0.4942  1.1383
  196POPC  C21526209   7.836   0.984   3.341 -0.1966 -0.0966  0.8334
  196POPC  H15R26210   7.873   1.086   3.315  1.4563 -0.9009 -0.0194
  196POPC  H15S26211   7.755   0.993   3.416 -1.6126  2.3388 -0.8829
  196POPC  C21626212   7.773   0.926   3.214 -0.0062  0.4591  0.4769
  196POPC  H16R26213   7.756   0.818   3.238  2.2344 -0.0552 -0.1616
  196POPC  H16S26214   7.848   0.941   3.134  0.7112 -1.3559  0.7792
  196POPC  C21726215   7.641   0.990   3.169 -0.2987 -0.4426  0.0186
  196POPC  H17R26216   7.654   1.101   3.164  0.3537 -0.5420 -0.6156
  196POPC  H17S26217   7.565   0.955   3.242 -0.9757 -0.4575 -0.6914
  196POPC  C21826218   7.598   0.941   3.031  0.1234  0.1741 -0.3345
  196POPC  H18R26219   7.584   0.833   3.048 -2.1300  0.6013  0.6184
  196POPC  H18S26220   7.679   0.959   2.956 -0.9210  0.0649 -1.4968
  196POPC  H18T26221   7.502   0.979   2.992 -0.7236  0.0308  1.5615
  196POPC   C3326222   0.062   1.138   2.985 -0.2865  0.2135  0.0722
  196POPC   H3X26223   7.917   1.146   3.015 -0.0203 -0.2820  1.3632
  196POPC   H3Y26224   0.081   1.221   2.914  0.9633 -0.6154 -0.5664
  196POPC   C3426225   0.147   1.162   3.110  0.2211 -0.1045 -0.2102
  196POPC   H4X26226   0.256   1.146   3.094 -0.2227 -1.9303 -1.5662
  196POPC   H4Y26227   0.129   1.083   3.186  2.0500 -2.1016 -1.7807
  196POPC   C3526228   0.121   1.292   3.187  0.0943 -0.8758  1.0721
  196POPC   H5X26229   0.018   1.287   3.227 -0.1097 -0.0411  0.6667
  196POPC   H5Y26230   0.120   1.367   3.105 -2.3136 -2.4736 -0.4062
  196POPC   C3626231   0.222   1.318   3.299  0.3246 -0.2359  0.7198
  196POPC   H6X26232   0.317   1.294   3.246 -1.9629 -2.4339 -2.6079
  196POPC   H6Y26233   0.201   1.240   3.375  0.2531 -1.4898 -0.5520
  196POPC   C3726234   0.219   1.461   3.354 -0.2129  0.0743 -0.1018
  196POPC   H7X26235   0.253   1.519   3.266  2.0350  1.8571  1.8814
  196POPC   H7Y26236   0.306   1.452   3.423 -0.2384 -0.2357 -0.1074
  196POPC   C3826237   0.098   1.514   3.430 -0.6080 -0.1455 -0.5754
  196POPC   H8X26238   0.011   1.522   3.361 -0.5224  1.1803 -0.5334
  196POPC   H8Y26239   0.117   1.614   3.476 -0.3419 -1.1284  1.5269
  196POPC   C3926240   0.050   1.424   3.544  0.3191  0.0786  0.0005
  196POPC   H9X26241   0.012   1.327   3.504 -1.7705  0.6585  0.5250
  196POPC   H9Y26242   7.936   1.478   3.604 -0.7774 -0.8375 -0.4781
  196POPC  C31026243   0.162   1.387   3.641  0.0273  0.0016  0.3100
  196POPC  H10X26244   0.226   1.474   3.664 -0.4193  0.5034 -0.3372
  196POPC  H10Y26245   0.226   1.324   3.575  1.2151 -0.9055  2.2897
  196POPC  C31126246   0.128   1.302   3.764 -0.3619 -0.4436 -0.1016
  196POPC  H11X26247   0.225   1.274   3.810  0.0345  0.7638 -0.1779
  196POPC  H11Y26248   0.074   1.210   3.734 -1.6006 -0.9488  3.4291
  196POPC  C31226249   0.036   1.371   3.865  0.5947 -0.0360  0.4994
  196POPC  H12X26250   7.910   1.409   3.809  0.7256 -0.7073 -0.2378
  196POPC  H12Y26251   0.098   1.453   3.907  1.4442 -0.5967  0.3524
  196POPC  C31326252   7.950   1.269   3.969 -0.5644 -0.0480 -0.0233
  196POPC  H13X26253   0.080   1.223   4.010 -1.0651 -1.1526 -0.0429
  196POPC  H13Y26254   7.886   1.193   3.919  1.0973 -1.6476  0.2432
  196POPC  C31426255   7.876   1.331   4.087  0.3789  0.0807  0.4992
  196POPC  H14X26256   7.782   1.381   4.055  2.0427  2.5072 -0.7278
  196POPC  H14Y26257   7.934   1.409   4.142 -0.1686  0.4002  0.6331
  196POPC  C31526258   7.831   1.225   4.188  0.0582 -0.1422  0.1229
  196POPC  H15X26259   7.919   1.170   4.228  0.1767 -1.4877 -1.9394
  196POPC  H15Y26260   7.761   1.153   4.141 -0.0428  0.1435 -0.1684
  196POPC  C31626261   7.766   1.291   4.310 -0.4521 -0.7120  0.1599
  196POPC  H16X26262   7.714   1.385   4.280 -0.7686 -1.2942 -1.1814
  196POPC  H16Y26263   7.854   1.316   4.373 -1.4375 -1.2455  1.7798
  196POPC  H16Z26264   7.706   1.222   4.372  0.3200 -1.3218  0.2313
  197POPC     N26265   6.659   1.302   2.097 -0.0060  0.1405  0.4367
  197POPC   C1226266   6.752   1.186   2.074 -0.0251  0.1906  0.1129
  197POPC  H12A26270   6.764   1.171   1.967  0.6315  0.3744  0.1583
  197POPC  H12B26271   6.709   1.099   2.122 -0.2513  0.9220  1.2436
  197POPC   C1326267   6.541   1.299   2.002  0.1194  0.1387  0.2821
  197POPC  H13A26272   6.574   1.253   1.910 -0.9819  0.0823 -0.0863
  197POPC  H13B26273   6.464   1.238   2.047  0.8896 -1.8771 -1.0403
  197POPC  H13C26274   6.499   1.394   1.973 -0.1719 -0.0969 -0.0614
  197POPC   C1426268   6.604   1.306   2.238  0.4407  0.7883  0.5949
  197POPC  H14A26275   6.567   1.205   2.251  0.3292  0.9438  1.5256
  197POPC  H14B26276   6.682   1.330   2.309 -0.5104  0.4288  1.7884
  197POPC  H14C26277   6.530   1.384   2.244  1.5383  1.7717  1.6737
  197POPC   C1526269   6.725   1.431   2.055  0.2205 -0.6402 -1.6705
  197POPC  H15A26278   6.765   1.425   1.955  0.1286  1.0656 -1.8343
  197POPC  H15B26279   6.805   1.451   2.125 -1.5750  3.4849 -0.6107
  197POPC  H15C26280   6.658   1.515   2.071  1.1502 -0.5646  2.4765
  197POPC   C1126281   6.892   1.198   2.133  0.1645 -0.0071 -0.2893
  197POPC  H11A26282   6.942   1.280   2.077  0.5134  1.6329  2.3047
  197POPC  H11B26283   6.945   1.103   2.112 -2.0560 -1.3958  0.2510
  197POPC     P26284   7.016   1.178   2.351 -0.2697  0.1521 -0.2290
  197POPC   O1326285   7.015   1.238   2.486  0.0896 -0.0600 -0.1323
  197POPC   O1426286   7.136   1.212   2.272 -0.3666 -0.1760 -0.5193
  197POPC   O1226287   6.880   1.214   2.275 -0.0941  0.5135 -0.3711
  197POPC   O1126288   7.014   1.019   2.364  0.2099  0.1705  0.0673
  197POPC    C126289   6.903   0.956   2.429 -0.3181  0.5445 -0.4645
  197POPC    HA26290   6.893   0.859   2.376 -0.0179 -0.3689  1.1206
  197POPC    HB26291   6.808   1.010   2.411 -0.7590  0.4044  1.3868
  197POPC    C226292   6.926   0.943   2.581 -0.4534 -0.0855 -0.4989
  197POPC    HS26293   6.947   1.041   2.627  0.8587 -0.5273 -0.1323
  197POPC   O2126294   7.045   0.865   2.597 -0.1149  0.5237 -0.0560
  197POPC   C2126295   7.130   0.905   2.692  0.0442  0.1506 -0.0418
  197POPC   O2226296   7.134   1.014   2.745 -0.1791 -0.1984  0.6957
  197POPC   C2226297   7.205   0.783   2.744 -0.4286  0.2594  0.9040
  197POPC   H2R26298   7.296   0.819   2.796 -1.6537  2.0654  1.8592
  197POPC   H2S26299   7.249   0.735   2.654 -2.1878  0.3511 -0.0272
  197POPC    C326300   6.814   0.868   2.655 -0.2027 -0.2776 -0.3114
  197POPC    HX26301   6.791   0.772   2.604  1.3487 -0.3220 -0.9505
  197POPC    HY26302   6.715   0.918   2.642 -0.1342 -0.3480 -1.0723
  197POPC   O3126303   6.835   0.847   2.795  0.6939 -0.4112 -0.4626
  197POPC   C3126304   6.786   0.927   2.890  0.8237 -0.0664 -0.6861
  197POPC   O3226305   6.731   1.034   2.872  0.0787 -0.3189  0.0473
  197POPC   C3226306   6.816   0.867   3.027  0.5161  0.3587 -0.4313
  197POPC   H2X26307   6.916   0.898   3.063 -0.6012  0.9648  2.2865
  197POPC   H2Y26308   6.834   0.759   3.010 -0.4269 -0.1268  1.5495
  197POPC   C2326309   7.118   0.690   2.829 -0.6817  0.4533  0.8558
  197POPC   H3R26310   7.026   0.661   2.774 -1.3221 -0.1832  2.2523
  197POPC   H3S26311   7.105   0.754   2.919  0.3461  0.0378  1.3053
  197POPC   C2426312   7.187   0.570   2.894  0.0702  0.5797  0.2984
  197POPC   H4R26313   7.204   0.492   2.817 -3.0443  1.0158 -0.8960
  197POPC   H4S26314   7.120   0.531   2.974  1.3598 -0.4591  0.8946
  197POPC   C2526315   7.321   0.604   2.959  0.0506  0.0134  0.6362
  197POPC   H5R26316   7.297   0.693   3.022 -0.0595  0.4411 -0.0080
  197POPC   H5S26317   7.394   0.627   2.878  0.6157  0.5383  1.2780
  197POPC   C2626318   7.380   0.489   3.041  0.3432 -0.2322  0.0863
  197POPC   H6R26319   7.331   0.488   3.141  0.9016 -3.2168  0.3753
  197POPC   H6S26320   7.484   0.516   3.069 -0.8666  1.5812  3.0772
  197POPC   C2726321   7.373   0.351   2.974  0.2892 -0.1275 -0.1237
  197POPC   H7R26322   7.413   0.360   2.871 -0.0687  0.1834 -0.2381
  197POPC   H7S26323   7.265   0.326   2.965 -0.1052  1.4414  0.0207
  197POPC   C2826324   7.451   0.239   3.042  0.0931 -0.5424 -0.5869
  197POPC   H8R26325   7.557   0.272   3.045  0.3412 -1.2138 -1.5525
  197POPC   H8S26326   7.449   0.149   2.976  1.9751 -1.1988  0.2172
  197POPC   C2926327   7.401   0.200   3.178  0.1536  0.3355 -0.3141
  197POPC   H9126328   7.305   0.147   3.187 -0.5066  1.8084  1.7896
  197POPC  C21026329   7.453   0.228   3.298 -0.3803 -0.3464  0.0825
  197POPC  H10126330   7.383   0.217   3.382 -0.2840  0.1064  0.2238
  197POPC  C21126331   7.582   0.303   3.318 -0.3894 -0.4577  0.5651
  197POPC  H11R26332   7.613   0.360   3.228 -0.8010  2.2952  2.1182
  197POPC  H11S26333   7.655   0.222   3.339  0.0998 -0.9518 -2.7248
  197POPC  C21226334   7.585   0.407   3.430 -0.0503  0.0273  0.1066
  197POPC  H12R26335   7.686   0.411   3.474 -0.0399  1.8482 -0.0366
  197POPC  H12S26336   7.509   0.379   3.506  0.3958  2.2591  1.3999
  197POPC  C21326337   7.557   0.546   3.370  0.0759 -0.0542 -0.1427
  197POPC  H13R26338   7.465   0.543   3.308  1.0865 -1.5284 -1.6074
  197POPC  H13S26339   7.636   0.573   3.298  0.9806  1.6156  1.4351
  197POPC  C21426340   7.531   0.663   3.465 -0.1731 -0.1757 -0.0598
  197POPC  H14R26341   7.439   0.639   3.523  0.0879  0.0836  0.4635
  197POPC  H14S26342   7.502   0.753   3.406  1.5462  0.5935  0.2215
  197POPC  C21526343   7.632   0.698   3.574 -0.3398  0.0843  0.0121
  197POPC  H15R26344   7.724   0.732   3.521 -1.0539  0.9239 -0.7215
  197POPC  H15S26345   7.665   0.602   3.618 -1.2096 -0.4112 -0.4274
  197POPC  C21626346   7.587   0.807   3.672 -0.0847  0.1668  0.0403
  197POPC  H16R26347   7.490   0.774   3.715  0.7860  0.5108  2.2977
  197POPC  H16S26348   7.576   0.906   3.624  0.0496 -0.5197 -1.4629
  197POPC  C21726349   7.689   0.831   3.784 -0.3626 -0.4500  0.4300
  197POPC  H17R26350   7.776   0.880   3.735 -2.1253  1.4210 -0.9188
  197POPC  H17S26351   7.729   0.735   3.823 -0.4210 -1.6545 -2.3332
  197POPC  C21826352   7.653   0.934   3.890 -0.0001  0.1343 -0.0083
  197POPC  H18R26353   7.617   1.024   3.837  2.1076  1.3846  0.6403
  197POPC  H18S26354   7.745   0.966   3.944  1.0642 -1.1252 -1.0641
  197POPC  H18T26355   7.574   0.900   3.961  2.4702  0.2156  2.8962
  197POPC   C3326356   6.713   0.908   3.132  0.6307  0.0878 -0.2127
  197POPC   H3X26357   6.614   0.858   3.120  1.5835 -1.7586 -0.4997
  197POPC   H3Y26358   6.694   1.017   3.126  1.3554  0.3859  2.2082
  197POPC   C3426359   6.753   0.883   3.278 -0.2691  0.3274  0.0769
  197POPC   H4X26360   6.848   0.939   3.286  0.1359 -0.4073  0.4163
  197POPC   H4Y26361   6.790   0.779   3.291 -0.2891  0.0728 -1.8118
  197POPC   C3526362   6.647   0.924   3.381 -0.4173  0.2821 -0.0584
  197POPC   H5X26363   6.570   0.844   3.369  0.6754 -0.9189  0.7916
  197POPC   H5Y26364   6.608   1.023   3.348  0.3183  1.0054  1.2473
  197POPC   C3626365   6.699   0.931   3.524  0.1774 -0.0078 -0.2608
  197POPC   H6X26366   6.797   0.985   3.526  0.9397 -1.2729 -1.8441
  197POPC   H6Y26367   6.735   0.830   3.553 -2.4940 -1.0675 -0.5516
  197POPC   C3726368   6.587   0.966   3.622  0.1404  0.2999 -0.4116
  197POPC   H7X26369   6.519   0.879   3.626 -0.1701  0.6198  1.3423
  197POPC   H7Y26370   6.534   1.049   3.571  0.5861 -0.7345 -2.6349
  197POPC   C3826371   6.636   1.011   3.759 -0.1369 -0.7804  0.0455
  197POPC   H8X26372   6.703   1.099   3.750  0.4800 -1.2070  0.3996
  197POPC   H8Y26373   6.699   0.938   3.813  0.4722 -0.9851 -0.9434
  197POPC   C3926374   6.522   1.050   3.854  0.0635 -0.8232  0.3021
  197POPC   H9X26375   6.449   0.966   3.856 -0.1565 -0.7352 -2.1636
  197POPC   H9Y26376   6.465   1.136   3.813  2.5610  0.6873 -0.1217
  197POPC  C31026377   6.558   1.073   4.001  0.3843 -0.6400  0.1947
  197POPC  H10X26378   6.494   1.145   4.055  0.1485  0.2978 -1.3146
  197POPC  H10Y26379   6.665   1.104   3.995  0.8585 -2.3667 -0.7323
  197POPC  C31126380   6.567   0.936   4.068 -0.2027 -0.7846 -0.0209
  197POPC  H11X26381   6.560   0.842   4.009 -1.7279 -0.2409 -0.7141
  197POPC  H11Y26382   6.476   0.932   4.132 -1.0867  1.2431 -1.1136
  197POPC  C31226383   6.697   0.922   4.148 -0.2481 -0.0653  0.1794
  197POPC  H12X26384   6.699   1.014   4.212 -0.9939 -1.1113  1.7458
  197POPC  H12Y26385   6.783   0.920   4.078 -1.4324 -1.9957 -1.2688
  197POPC  C31326386   6.694   0.795   4.234 -0.5691 -0.3252 -0.2138
  197POPC  H13X26387   6.700   0.708   4.165  0.8036 -0.4019 -0.0164
  197POPC  H13Y26388   6.597   0.797   4.288 -1.3486  0.6527 -1.6006
  197POPC  C31426389   6.821   0.769   4.316 -0.2874 -0.2833 -0.6349
  197POPC  H14X26390   6.838   0.853   4.387  0.4076 -1.8674  1.1092
  197POPC  H14Y26391   6.907   0.769   4.245  1.0704 -2.4714  0.9707
  197POPC  C31526392   6.819   0.633   4.386 -0.7849  0.2408  0.3764
  197POPC  H15X26393   6.922   0.616   4.422 -1.3920 -0.6989  1.6933
  197POPC  H15Y26394   6.786   0.551   4.318  1.4430 -0.7989  0.5259
  197POPC  C31626395   6.722   0.614   4.503 -0.3230 -0.1522  0.6960
  197POPC  H16X26396   6.724   0.709   4.561 -0.8153 -0.2064  0.8015
  197POPC  H16Y26397   6.738   0.526   4.569 -1.9044 -1.0805 -0.1433
  197POPC  H16Z26398   6.628   0.611   4.444  0.0816  3.1820 -0.2465
  198POPC     N26399   1.213   0.113   1.709 -0.0198  0.0017 -0.0691
  198POPC   C1226400   1.190   0.073   1.853 -0.5989  0.1051 -0.1331
  198POPC  H12A26404   1.288   0.054   1.893 -0.8038  2.0022  1.3503
  198POPC  H12B26405   1.129   7.946   1.856 -0.9426  0.3474  2.1699
  198POPC   C1326401   1.290   7.960   1.647 -0.0708  0.0325 -0.2644
  198POPC  H13A26406   1.241   7.867   1.671  0.9532 -0.2602  0.6826
  198POPC  H13B26407   1.292   0.015   1.540 -1.7475  4.5563  0.2938
  198POPC  H13C26408   1.389   7.946   1.687 -0.1097 -0.8112 -0.4520
  198POPC   C1426402   1.080   0.135   1.641  0.1042  0.0773 -0.2858
  198POPC  H14A26409   1.083   0.154   1.535 -1.2825  1.5319 -0.0756
  198POPC  H14B26410   1.022   0.046   1.658  2.9483 -1.2394  3.0949
  198POPC  H14C26411   1.023   0.209   1.695 -1.5187 -1.5026  0.2123
  198POPC   C1526403   1.307   0.231   1.702  0.0750 -0.0418  0.4523
  198POPC  H15A26412   1.404   0.210   1.745  0.5290  0.1616 -0.4816
  198POPC  H15B26413   1.254   0.315   1.744  0.4979 -0.6811  2.3241
  198POPC  H15C26414   1.328   0.244   1.597 -1.7367 -2.6655 -0.2994
  198POPC   C1126415   1.125   0.173   1.949 -0.1303  0.4435 -0.1625
  198POPC  H11A26416   1.185   0.264   1.970  1.0520 -0.7668  1.9322
  198POPC  H11B26417   1.119   0.121   2.048  0.7093  2.1409  0.8076
  198POPC     P26418   0.908   0.297   1.996  0.1414 -0.0865  0.2439
  198POPC   O1326419   0.764   0.284   1.961  0.2445 -0.1580 -0.1511
  198POPC   O1426420   0.954   0.437   2.008 -0.4049  0.0878  0.3545
  198POPC   O1226421   0.997   0.209   1.897 -0.1920  0.1191 -0.2396
  198POPC   O1126422   0.934   0.232   2.140  1.0656 -0.3465 -0.0403
  198POPC    C126423   0.834   0.139   2.183  0.3076  0.4132 -0.1458
  198POPC    HA26424   0.866   0.067   2.261 -0.1073 -0.0957 -0.4397
  198POPC    HB26425   0.799   0.078   2.097 -0.7272  0.3910  0.2792
  198POPC    C226426   0.714   0.209   2.248 -0.1940 -0.4533 -0.1266
  198POPC    HS26427   0.653   0.250   2.165  1.2936  0.5353 -0.7629
  198POPC   O2126428   0.769   0.306   2.338  0.1294 -0.2410 -0.5495
  198POPC   C2126429   0.707   0.424   2.327  0.3287 -0.0742  0.1123
  198POPC   O2226430   0.599   0.440   2.274  0.0256 -0.5129  0.5907
  198POPC   C2226431   0.788   0.523   2.409 -0.1073  0.2314  0.1764
  198POPC   H2R26432   0.755   0.629   2.405 -2.9427 -0.5638  1.8104
  198POPC   H2S26433   0.893   0.527   2.372  0.5847 -0.9425  1.9881
  198POPC    C326434   0.625   0.105   2.317 -0.1279 -0.4894 -0.0960
  198POPC    HX26435   0.689   0.034   2.374  0.6986  0.4063  0.1018
  198POPC    HY26436   0.578   0.039   2.241  0.0921 -2.0521  1.0766
  198POPC   O3126437   0.542   0.161   2.420  0.2205  0.1696 -0.1745
  198POPC   C3126438   0.421   0.188   2.369  0.0219  0.1408  0.2829
  198POPC   O3226439   0.374   0.152   2.263  0.1335  0.1830  0.2183
  198POPC   C3226440   0.351   0.280   2.467  0.0633 -0.1605  0.5971
  198POPC   H2X26441   0.285   0.355   2.419  0.3231 -0.2316  0.1325
  198POPC   H2Y26442   0.431   0.337   2.520  0.0966 -0.8046  1.2481
  198POPC   C2326443   0.764   0.493   2.557  0.3532 -0.4591  0.1118
  198POPC   H3R26444   0.809   0.393   2.576  0.4523 -0.6887 -1.2640
  198POPC   H3S26445   0.655   0.474   2.558 -0.1442  1.9978 -1.3685
  198POPC   C2426446   0.809   0.590   2.666 -0.1051 -0.1389  0.0204
  198POPC   H4R26447   0.914   0.603   2.632  0.2769 -0.1378  1.1671
  198POPC   H4S26448   0.799   0.538   2.763 -0.9456  0.6759  0.3695
  198POPC   C2526449   0.742   0.727   2.671  0.4860  0.1572 -0.0294
  198POPC   H5R26450   0.636   0.735   2.637  0.7270  2.1344 -0.4019
  198POPC   H5S26451   0.791   0.787   2.591 -1.0481  1.5342  0.0459
  198POPC   C2626452   0.750   0.793   2.808 -0.1131 -0.0298  0.0975
  198POPC   H6R26453   0.857   0.809   2.834  0.8045 -3.8155 -1.0172
  198POPC   H6S26454   0.702   0.724   2.881  0.3650  0.4912  0.9117
  198POPC   C2726455   0.678   0.926   2.833 -0.0077  0.0203  0.1357
  198POPC   H7R26456   0.593   0.933   2.762 -1.1282  0.6786  1.5258
  198POPC   H7S26457   0.750   1.009   2.816 -0.5745 -0.0193 -2.7329
  198POPC   C2826458   0.622   0.947   2.973  0.0449  0.1208  0.1407
  198POPC   H8R26459   0.714   0.946   3.036  1.9669 -2.0446 -2.6002
  198POPC   H8S26460   0.564   0.855   2.996  1.0847 -0.3405  0.9805
  198POPC   C2926461   0.535   1.066   3.002 -0.1365 -0.0352  0.2370
  198POPC   H9126462   0.458   1.084   2.926 -1.2695 -2.3553  0.7786
  198POPC  C21026463   0.544   1.154   3.104 -0.4429  0.0249  0.2118
  198POPC  H10126464   0.490   1.249   3.099  0.1432  0.3207 -0.5657
  198POPC  C21126465   0.643   1.151   3.216 -0.1611 -0.1484 -0.0411
  198POPC  H11R26466   0.717   1.231   3.195 -1.3572  0.5532 -1.6933
  198POPC  H11S26467   0.692   1.052   3.218 -0.0068 -0.0614  0.8586
  198POPC  C21226468   0.578   1.190   3.349 -0.5736 -0.2211 -0.2231
  198POPC  H12R26469   0.487   1.128   3.362 -1.7474  1.4867 -0.0627
  198POPC  H12S26470   0.531   1.290   3.335  0.0060 -0.1530 -1.8673
  198POPC  C21326471   0.682   1.183   3.460 -0.4721  0.0852 -0.2974
  198POPC  H13R26472   0.757   1.259   3.430  0.9381 -1.6127 -1.1249
  198POPC  H13S26473   0.725   1.081   3.454 -1.2264 -0.3067  0.7655
  198POPC  C21426474   0.630   1.200   3.603 -0.1305  0.1414 -0.1806
  198POPC  H14R26475   0.724   1.189   3.662 -0.1067  1.0230 -0.0433
  198POPC  H14S26476   0.558   1.123   3.638 -0.6639  0.2230 -1.1051
  198POPC  C21526477   0.570   1.340   3.614  0.1644  0.2278  0.4033
  198POPC  H15R26478   0.485   1.361   3.544 -0.2303 -0.8020  0.5748
  198POPC  H15S26479   0.653   1.408   3.582  0.9298 -1.6647 -1.7812
  198POPC  C21626480   0.521   1.369   3.756 -0.1738  0.7198  0.1885
  198POPC  H16R26481   0.472   1.278   3.796 -1.3454  1.0303 -0.5045
  198POPC  H16S26482   0.435   1.437   3.738 -0.7177 -0.0497 -0.1793
  198POPC  C21726483   0.620   1.440   3.848  0.4320 -0.0680  0.1516
  198POPC  H17R26484   0.564   1.446   3.943  0.3211 -2.6238  0.2753
  198POPC  H17S26485   0.643   1.542   3.810 -0.3740  0.3039  0.6568
  198POPC  C21826486   0.751   1.366   3.871  0.3798 -0.2888 -0.2629
  198POPC  H18R26487   0.812   1.352   3.778 -0.8498  1.3869 -1.3437
  198POPC  H18S26488   0.732   1.265   3.913  0.5028 -0.6038 -0.9509
  198POPC  H18T26489   0.813   1.422   3.944 -1.9666 -0.1990  1.6910
  198POPC   C3326490   0.278   0.191   2.568  0.1300 -0.1968  0.6129
  198POPC   H3X26491   0.346   0.113   2.608  2.5235  0.6375 -1.6740
  198POPC   H3Y26492   0.194   0.144   2.512  3.1250 -1.2933 -3.2061
  198POPC   C3426493   0.213   0.265   2.685 -0.2786  0.6017 -0.1175
  198POPC   H4X26494   0.155   0.348   2.638 -1.1852  0.7262  1.2153
  198POPC   H4Y26495   0.300   0.315   2.732  0.3889  1.9224 -2.6214
  198POPC   C3526496   0.122   0.177   2.770  0.1493  0.0833 -0.1935
  198POPC   H5X26497   0.183   0.096   2.814 -2.4587 -1.9503 -0.1961
  198POPC   H5Y26498   0.060   0.118   2.700 -1.6673 -0.1102  1.5238
  198POPC   C3626499   0.032   0.253   2.868  0.0837 -0.0101 -0.1806
  198POPC   H6X26500   7.895   0.275   2.821 -0.5619  0.3394  1.2278
  198POPC   H6Y26501   0.088   0.349   2.877  1.1705 -0.2736 -3.2947
  198POPC   C3726502   0.020   0.171   2.996 -0.0559 -0.5216 -0.5187
  198POPC   H7X26503   7.953   0.068   2.967 -0.0004 -0.3699 -1.1599
  198POPC   H7Y26504   7.909   0.233   3.053 -0.9368 -0.4442 -1.6698
  198POPC   C3826505   0.145   0.174   3.084 -0.2248  0.3394 -0.3049
  198POPC   H8X26506   0.166   0.281   3.109  1.5036 -0.2064  0.7148
  198POPC   H8Y26507   0.229   0.120   3.036 -0.5948 -0.4095 -0.1155
  198POPC   C3926508   0.108   0.105   3.216 -0.6260  0.0370 -0.5778
  198POPC   H9X26509   0.117   7.957   3.203  0.2429  0.1096 -1.0311
  198POPC   H9Y26510   0.007   0.134   3.252 -0.4935 -0.7794  0.4750
  198POPC  C31026511   0.197   0.155   3.330 -0.5857 -0.4269 -0.4033
  198POPC  H10X26512   0.189   0.266   3.330  2.9769 -0.0879 -2.3800
  198POPC  H10Y26513   0.302   0.141   3.296 -0.1023  1.9854  0.0233
  198POPC  C31126514   0.169   0.083   3.462 -0.1906 -0.0010 -0.0866
  198POPC  H11X26515   0.245   0.110   3.538 -0.5939 -1.8483  1.0046
  198POPC  H11Y26516   0.177   7.936   3.440  1.0674  0.1484 -0.6390
  198POPC  C31226517   0.029   0.090   3.523 -0.1542  0.1732 -0.0236
  198POPC  H12X26518   7.929   0.002   3.496 -0.6461  0.4213  0.0618
  198POPC  H12Y26519   7.937   0.181   3.490 -0.6480  0.0877  0.4654
  198POPC  C31326520   0.031   0.099   3.676  0.0630  0.0641 -0.0187
  198POPC  H13X26521   0.028   0.209   3.692  0.1514 -0.0369  0.6934
  198POPC  H13Y26522   0.121   0.054   3.722  0.1810  2.3055  2.0628
  198POPC  C31426523   7.871   0.033   3.739  0.0254  0.2551  0.1910
  198POPC  H14X26524   7.880   0.046   3.849 -2.7659 -0.0558  0.5077
  198POPC  H14Y26525   7.876   7.885   3.723 -1.1301  0.2307 -0.3458
  198POPC  C31526526   7.737   0.093   3.694  0.1206  0.0552 -0.3592
  198POPC  H15X26527   7.649   0.045   3.742  0.5144  1.4995  1.8814
  198POPC  H15Y26528   7.729   0.060   3.588 -1.1571 -1.1874  0.1062
  198POPC  C31626529   7.719   0.245   3.698  0.3368  0.0633  0.4721
  198POPC  H16X26530   7.742   0.274   3.802 -0.3951  0.4654  0.5220
  198POPC  H16Y26531   7.623   0.285   3.660 -0.0104 -0.6352  0.6137
  198POPC  H16Z26532   7.791   0.286   3.624 -0.2433 -1.2347 -0.8466
  199POPC     N26533   0.689   5.862   2.532 -0.1539 -0.6220  0.0622
  199POPC   C1226534   0.684   5.986   2.445  0.1031 -0.3964  0.3646
  199POPC  H12A26538   0.688   5.953   2.343 -0.0439  2.1897 -0.5088
  199POPC  H12B26539   0.773   6.043   2.466  0.0557  0.2964 -1.2607
  199POPC   C1326535   0.801   5.786   2.466 -0.2254 -0.1986 -0.5544
  199POPC  H13A26540   0.890   5.848   2.465  2.2881 -3.5928  1.0479
  199POPC  H13B26541   0.819   5.697   2.525 -1.2178  0.7063  1.1611
  199POPC  H13C26542   0.761   5.761   2.369 -1.6990 -1.0912  0.2617
  199POPC   C1426536   0.722   5.896   2.676 -0.0953 -0.0758 -0.0758
  199POPC  H14A26543   0.746   5.800   2.721 -0.4780  0.3432  1.0374
  199POPC  H14B26544   0.814   5.950   2.688 -0.7149  1.0095 -0.1167
  199POPC  H14C26545   0.641   5.953   2.719  0.7210  1.8446 -1.0342
  199POPC   C1526537   0.564   5.778   2.526 -0.7393  0.2658 -0.2729
  199POPC  H15A26546   0.586   5.674   2.546  0.2699  0.4193 -0.5391
  199POPC  H15B26547   0.517   5.777   2.429 -2.5684 -2.6779  0.5895
  199POPC  H15C26548   0.485   5.814   2.590 -1.9231 -2.9484  0.1637
  199POPC   C1126549   0.562   6.077   2.455  0.4495  0.1060  0.0392
  199POPC  H11A26550   0.472   6.030   2.409  0.6882 -1.5975  1.2949
  199POPC  H11B26551   0.590   6.175   2.412 -0.1038 -0.0615 -0.7016
  199POPC     P26552   0.372   6.117   2.632 -0.1860  0.1711 -0.4147
  199POPC   O1326553   0.298   5.994   2.597  0.4903 -0.2424 -0.4095
  199POPC   O1426554   0.332   6.244   2.569 -0.2331  0.2008 -0.3228
  199POPC   O1226555   0.526   6.095   2.593 -0.1657 -0.3363 -0.0616
  199POPC   O1126556   0.373   6.138   2.790  0.1909 -0.2725 -0.3550
  199POPC    C126557   0.241   6.157   2.842  0.5306  0.4901  0.2401
  199POPC    HA26558   0.251   6.120   2.947 -0.9164  0.7581  0.4794
  199POPC    HB26559   0.160   6.102   2.790  0.4780  0.4384  0.3766
  199POPC    C226560   0.198   6.305   2.849 -0.4491  0.2237 -0.0660
  199POPC    HS26561   0.199   6.351   2.747 -0.2003 -1.1954 -0.7207
  199POPC   O2126562   0.299   6.362   2.932 -0.0408 -0.2263 -0.2472
  199POPC   C2126563   0.309   6.494   2.913  0.5252 -0.2760 -0.3169
  199POPC   O2226564   0.258   6.558   2.823 -0.6604 -0.2051  0.3810
  199POPC   C2226565   0.403   6.549   3.019  0.3567  0.0916 -0.3572
  199POPC   H2R26566   0.489   6.598   2.969  0.9205  0.8324  1.3116
  199POPC   H2S26567   0.437   6.465   3.084  1.3191 -0.1029 -1.1085
  199POPC    C326568   0.058   6.327   2.906 -0.4534  0.4276 -0.1555
  199POPC    HX26569   7.939   6.297   2.836 -0.1863  2.2339 -1.3033
  199POPC    HY26570   0.049   6.438   2.913 -0.1555  0.4832 -0.6747
  199POPC   O3126571   0.039   6.254   3.028 -0.2232  0.0401 -0.3542
  199POPC   C3126572   0.032   6.333   3.135 -0.5714 -0.2496 -0.1611
  199POPC   O3226573   0.056   6.453   3.128  0.3660 -0.4156  0.0771
  199POPC   C3226574   0.027   6.238   3.253  0.1863  0.3224  0.3359
  199POPC   H2X26575   0.127   6.216   3.296  0.7847 -3.1405 -2.6093
  199POPC   H2Y26576   0.000   6.139   3.211  0.6377  0.1947  0.3231
  199POPC   C2326577   0.346   6.654   3.114  0.3837 -0.3006  0.0988
  199POPC   H3R26578   0.264   6.604   3.170  1.2108 -1.0401  0.6789
  199POPC   H3S26579   0.306   6.744   3.062  1.6594  0.3059  0.1359
  199POPC   C2426580   0.449   6.703   3.216  0.1013 -0.6502  0.5533
  199POPC   H4R26581   0.528   6.753   3.156  2.3984 -2.5501  1.8922
  199POPC   H4S26582   0.496   6.609   3.254 -0.5544 -2.4444 -2.8423
  199POPC   C2526583   0.390   6.799   3.320  0.0519 -0.0969  0.0137
  199POPC   H5R26584   0.328   6.752   3.399 -0.6486  0.8878  0.0570
  199POPC   H5S26585   0.321   6.867   3.265  0.2505  1.2586  1.4181
  199POPC   C2626586   0.498   6.872   3.399  0.1692 -0.9361  0.6296
  199POPC   H6R26587   0.527   6.963   3.342 -0.3888 -0.2516  1.4165
  199POPC   H6S26588   0.581   6.799   3.416  0.0608 -1.3536 -0.6120
  199POPC   C2726589   0.447   6.934   3.530 -0.0325 -0.4724  0.3311
  199POPC   H7R26590   0.391   6.865   3.597 -0.8119  2.5358  2.8756
  199POPC   H7S26591   0.384   7.025   3.521  0.5945 -0.0790 -0.0676
  199POPC   C2826592   0.571   6.959   3.615 -0.0248  0.0361  0.1695
  199POPC   H8R26593   0.615   7.041   3.554 -2.2016  1.8523  0.9493
  199POPC   H8S26594   0.644   6.876   3.619  0.2367  0.1299 -2.1049
  199POPC   C2926595   0.553   7.013   3.754 -1.3340  0.1502 -0.0404
  199POPC   H9126596   0.546   7.123   3.762  0.7637  0.2875 -0.0043
  199POPC  C21026597   0.548   6.933   3.861  0.6300 -0.0222 -0.0623
  199POPC  H10126598   0.529   6.972   3.961  0.3390  1.6774 -0.7653
  199POPC  C21126599   0.564   6.783   3.858 -0.2043 -0.1384  0.9522
  199POPC  H11R26600   0.660   6.754   3.906  0.9919  1.9370 -0.0870
  199POPC  H11S26601   0.571   6.748   3.753  2.4444 -1.1952  1.4275
  199POPC  C21226602   0.443   6.707   3.911 -0.8808  0.1844 -0.1200
  199POPC  H12R26603   0.482   6.603   3.901  1.1297  1.0761 -1.7783
  199POPC  H12S26604   0.361   6.728   3.838 -0.5436 -0.2217 -0.6227
  199POPC  C21326605   0.414   6.719   4.061 -0.0185  0.5542  0.0168
  199POPC  H13R26606   0.340   6.642   4.090  0.0767  0.1367 -0.8165
  199POPC  H13S26607   0.398   6.827   4.083  0.4771  0.6115  0.0938
  199POPC  C21426608   0.534   6.690   4.151  0.2387  0.4187 -0.3646
  199POPC  H14R26609   0.622   6.753   4.127  0.3882 -0.0935 -1.1837
  199POPC  H14S26610   0.573   6.588   4.132 -1.3440 -0.2845  0.0511
  199POPC  C21526611   0.508   6.701   4.302  0.6539  0.1204 -0.2705
  199POPC  H15R26612   0.602   6.668   4.351 -0.6500 -0.2599  2.0185
  199POPC  H15S26613   0.424   6.633   4.329 -1.7048  1.9850 -2.6510
  199POPC  C21626614   0.464   6.840   4.348 -0.6063 -0.4138  0.1476
  199POPC  H16R26615   0.442   6.849   4.456 -3.6360  0.5203 -0.4755
  199POPC  H16S26616   0.364   6.861   4.303  0.1944  2.9764 -0.1937
  199POPC  C21726617   0.545   6.958   4.296 -0.2478 -0.2578  1.0572
  199POPC  H17R26618   0.544   6.971   4.185  0.9356 -0.0182  1.0586
  199POPC  H17S26619   0.649   6.942   4.332  0.7828  1.4462 -0.9745
  199POPC  C21826620   0.507   7.090   4.363  0.0610  0.4998 -0.2271
  199POPC  H18R26621   0.556   7.174   4.309 -1.6726 -0.4132 -3.3484
  199POPC  H18S26622   0.522   7.087   4.473  0.2086  0.0674 -0.2596
  199POPC  H18T26623   0.399   7.102   4.341 -0.3742 -3.7931 -0.7921
  199POPC   C3326624   7.883   6.273   3.358 -0.0153  0.2994  0.1821
  199POPC   H3X26625   7.789   6.306   3.310  0.2221 -1.2754 -1.4169
  199POPC   H3Y26626   7.914   6.365   3.412 -1.5919  1.0678 -0.2004
  199POPC   C3426627   7.855   6.156   3.453 -0.3333  0.1063 -0.1473
  199POPC   H4X26628   7.948   6.096   3.465 -0.7636 -0.6349 -0.4840
  199POPC   H4Y26629   7.784   6.081   3.413 -0.4575 -1.0659  2.1549
  199POPC   C3526630   7.800   6.212   3.584 -0.4625 -0.2209 -0.0607
  199POPC   H5X26631   7.843   6.311   3.612 -0.9935 -0.2464  0.8578
  199POPC   H5Y26632   7.825   6.140   3.664  0.6515  0.4159  0.1733
  199POPC   C3626633   7.651   6.243   3.569 -0.4743 -0.2434  0.0039
  199POPC   H6X26634   7.587   6.153   3.553 -0.5108 -0.2254  0.0495
  199POPC   H6Y26635   7.636   6.300   3.475 -2.9642 -2.4671 -1.0356
  199POPC   C3726636   7.582   6.315   3.686 -0.2391 -0.2153  0.1242
  199POPC   H7X26637   7.482   6.352   3.654 -0.3095 -1.1304 -0.7518
  199POPC   H7Y26638   7.635   6.397   3.739  0.0782 -0.5169  0.2843
  199POPC   C3826639   7.562   6.207   3.793  0.0783 -0.4027 -0.0045
  199POPC   H8X26640   7.656   6.149   3.807 -0.9407 -2.0490  0.2292
  199POPC   H8Y26641   7.482   6.137   3.761 -1.1128  1.2163 -0.6161
  199POPC   C3926642   7.505   6.252   3.927  0.2886  0.0374 -0.0619
  199POPC   H9X26643   7.490   6.162   3.991  2.2207  0.1986  0.6731
  199POPC   H9Y26644   7.404   6.292   3.907  0.6975  1.3173  0.4188
  199POPC  C31026645   7.583   6.358   4.006  0.3460 -0.3634  0.4253
  199POPC  H10X26646   7.604   6.437   3.932 -4.3281  2.3186  1.7334
  199POPC  H10Y26647   7.676   6.313   4.045 -1.1490 -2.5453  1.5921
  199POPC  C31126648   7.505   6.402   4.130 -0.0778 -0.5209  0.2148
  199POPC  H11X26649   7.478   6.323   4.204 -2.4441 -0.4537 -0.5147
  199POPC  H11Y26650   7.409   6.440   4.087  1.3387  2.1594 -0.6789
  199POPC  C31226651   7.571   6.506   4.220  0.0550 -0.4390  0.0232
  199POPC  H12X26652   7.619   6.580   4.152 -0.6268 -0.6532 -0.6968
  199POPC  H12Y26653   7.645   6.447   4.278  0.0625 -1.2944 -0.8495
  199POPC  C31326654   7.475   6.571   4.320  0.4789 -0.5301  0.4944
  199POPC  H13X26655   7.432   6.488   4.380  1.6983 -0.9883  0.7359
  199POPC  H13Y26656   7.393   6.623   4.265 -0.5031 -3.7586 -1.2267
  199POPC  C31426657   7.539   6.683   4.403  0.0999  0.0156  0.0535
  199POPC  H14X26658   7.575   6.767   4.340  2.0520 -0.8564 -0.0358
  199POPC  H14Y26659   7.625   6.643   4.461 -0.6563 -2.1980 -0.3210
  199POPC  C31526660   7.439   6.728   4.509 -0.4061 -0.2643 -0.3030
  199POPC  H15X26661   7.398   6.646   4.572 -1.0117  0.1319 -0.1694
  199POPC  H15Y26662   7.357   6.781   4.455  2.9950  2.5405 -2.9475
  199POPC  C31626663   7.509   6.831   4.597 -0.2196 -0.0491 -0.7045
  199POPC  H16X26664   7.438   6.860   4.677  1.5437 -1.0628  1.2685
  199POPC  H16Y26665   7.543   6.921   4.541  1.2113 -0.6082 -0.7636
  199POPC  H16Z26666   7.591   6.781   4.653 -1.0122  0.3824  0.8636
  200POPC     N26667   2.050   3.744   2.119 -0.2518  0.3090  0.1990
  200POPC   C1226668   2.040   3.655   2.240 -0.2504 -0.0021 -0.0268
  200POPC  H12A26672   2.123   3.585   2.236 -1.1769 -1.0364 -1.2285
  200POPC  H12B26673   1.950   3.597   2.228 -0.4200  0.7767 -2.7639
  200POPC   C1326669   2.045   3.652   1.999 -0.1844  0.2034  0.2769
  200POPC  H13A26674   2.058   3.715   1.912  1.4238 -0.5967 -0.0846
  200POPC  H13B26675   2.120   3.575   2.005 -1.8640 -1.7053 -2.1730
  200POPC  H13C26676   1.950   3.600   1.997  0.8027 -1.6105  0.1299
  200POPC   C1426670   1.935   3.841   2.107 -0.3095  0.1544 -0.5107
  200POPC  H14A26677   1.940   3.904   2.194 -1.9205  1.1025 -1.0898
  200POPC  H14B26678   1.952   3.898   2.017  0.2866 -0.2017 -0.6300
  200POPC  H14C26679   1.837   3.795   2.113 -0.2351 -0.2174 -1.8025
  200POPC   C1526671   2.184   3.813   2.111 -0.2715  0.2832 -0.4347
  200POPC  H15A26680   2.271   3.749   2.104  0.4614  0.9206  2.3486
  200POPC  H15B26681   2.196   3.879   2.196 -1.0950 -0.3935  0.2143
  200POPC  H15C26682   2.182   3.872   2.020 -1.6050 -0.5511 -0.9617
  200POPC   C1126683   2.057   3.728   2.374  0.1208 -0.3120  0.0957
  200POPC  H11A26684   2.168   3.722   2.385  0.1122  0.5270  0.6051
  200POPC  H11B26685   2.012   3.670   2.457 -0.1105  0.7921  0.7462
  200POPC     P26686   2.103   3.968   2.451 -0.2558  0.0097 -0.0280
  200POPC   O1326687   2.055   4.106   2.427  0.1385  0.2206  0.3790
  200POPC   O1426688   2.237   3.945   2.393 -0.3634  0.0293 -0.2831
  200POPC   O1226689   2.012   3.863   2.372 -0.2540 -0.4308  0.5450
  200POPC   O1126690   2.094   3.932   2.607  0.2851  0.1262  0.0319
  200POPC    C126691   1.969   3.904   2.671  0.5087 -0.1101  0.3677
  200POPC    HA26692   1.978   3.865   2.774 -3.2432  0.1376  0.8720
  200POPC    HB26693   1.910   3.829   2.612 -0.6670  1.4429 -0.4601
  200POPC    C226694   1.879   4.028   2.681  0.1606 -0.3540  0.3118
  200POPC    HS26695   1.865   4.059   2.575 -2.0057  1.1922  1.0276
  200POPC   O2126696   1.949   4.134   2.747 -0.1296 -0.0242  0.0912
  200POPC   C2126697   1.886   4.251   2.737  0.5919  0.3021 -0.6839
  200POPC   O2226698   1.789   4.280   2.668 -0.0798  0.1544  0.1941
  200POPC   C2226699   1.954   4.351   2.830  0.1439  0.0319 -0.0669
  200POPC   H2R26700   1.878   4.379   2.906  0.0297  0.0034 -0.1714
  200POPC   H2S26701   1.993   4.441   2.779 -1.3981 -0.4128 -2.0743
  200POPC    C326702   1.745   3.992   2.747 -0.1985  0.0443 -0.1929
  200POPC    HX26703   1.682   3.920   2.692 -0.1940  0.0794 -0.2451
  200POPC    HY26704   1.679   4.081   2.748 -2.7818 -1.8236  1.1605
  200POPC   O3126705   1.756   3.933   2.877  0.3411  0.3768 -0.0820
  200POPC   C3126706   1.778   4.014   2.981  0.0264 -0.3521  0.5546
  200POPC   O3226707   1.766   4.135   2.972  0.0074 -0.4062 -0.1994
  200POPC   C3226708   1.809   3.940   3.110  0.2252 -0.5610  0.3882
  200POPC   H2X26709   1.917   3.950   3.138  0.6184  0.6685 -1.5189
  200POPC   H2Y26710   1.790   3.833   3.086 -0.1844 -0.4503  0.2245
  200POPC   C2326711   2.067   4.288   2.912 -0.2482  0.2731  0.6615
  200POPC   H3R26712   2.130   4.241   2.834 -1.9473  0.6450 -0.9602
  200POPC   H3S26713   2.035   4.203   2.977  0.3149  0.1789  0.8234
  200POPC   C2426714   2.147   4.385   2.999  0.0966  0.2471  0.3711
  200POPC   H4R26715   2.115   4.488   2.972 -1.3064  0.0441  1.2076
  200POPC   H4S26716   2.255   4.369   2.976 -0.3320  0.6107 -2.0489
  200POPC   C2526717   2.128   4.364   3.149 -0.1379 -0.6453  0.2199
  200POPC   H5R26718   2.018   4.366   3.166 -0.2637  1.9551 -0.6708
  200POPC   H5S26719   2.171   4.454   3.199  0.0225 -1.1536  0.9961
  200POPC   C2626720   2.197   4.244   3.213  0.1986 -0.2010  0.6978
  200POPC   H6R26721   2.307   4.261   3.215  0.0441  1.0192 -0.2531
  200POPC   H6S26722   2.182   4.143   3.169  4.3212 -1.0954  1.1264
  200POPC   C2726723   2.153   4.222   3.358 -0.3654 -0.3384  0.5055
  200POPC   H7R26724   2.046   4.191   3.355  0.3875 -3.0167 -0.3165
  200POPC   H7S26725   2.167   4.306   3.429 -0.5033 -1.0710  1.3982
  200POPC   C2826726   2.229   4.110   3.429 -0.3756 -0.3696  0.4664
  200POPC   H8R26727   2.221   4.016   3.371 -0.2324 -0.2636  0.2726
  200POPC   H8S26728   2.188   4.089   3.530 -0.5058  1.2628  0.7677
  200POPC   C2926729   2.373   4.151   3.439 -0.4542 -0.0576  0.3326
  200POPC   H9126730   2.428   4.120   3.349  0.3683 -0.6442  1.0274
  200POPC  C21026731   2.429   4.235   3.527 -0.4988 -0.3540  0.6418
  200POPC  H10126732   2.535   4.267   3.525 -0.7631  0.4767 -0.2471
  200POPC  C21126733   2.350   4.281   3.646 -0.3710  0.0522  0.5704
  200POPC  H11R26734   2.288   4.202   3.694  0.8547  0.9497  3.7131
  200POPC  H11S26735   2.274   4.355   3.611  0.0493 -0.7513 -2.1501
  200POPC  C21226736   2.430   4.339   3.763  0.0402 -0.2108  0.4185
  200POPC  H12R26737   2.479   4.437   3.742 -1.9023  0.8929  0.9603
  200POPC  H12S26738   2.508   4.264   3.788  1.0116 -0.1493 -2.1709
  200POPC  C21326739   2.347   4.351   3.891  0.3433  0.1269  0.5850
  200POPC  H13R26740   2.281   4.264   3.912 -1.6169  1.1517 -1.2068
  200POPC  H13S26741   2.271   4.430   3.879 -1.7208 -1.8419  0.4410
  200POPC  C21426742   2.430   4.374   4.017  0.7854  0.0165  0.3205
  200POPC  H14R26743   2.363   4.421   4.093  1.2689  1.3222 -0.0459
  200POPC  H14S26744   2.516   4.444   4.008  0.5088  0.3155 -0.0415
  200POPC  C21526745   2.476   4.243   4.080  0.3510 -0.3151 -0.0444
  200POPC  H15R26746   2.553   4.192   4.018 -2.7168 -2.2662 -2.3707
  200POPC  H15S26747   2.387   4.178   4.074 -0.7684  1.1930 -0.0075
  200POPC  C21626748   2.515   4.248   4.228  0.0485 -0.2222  0.0326
  200POPC  H16R26749   2.524   4.141   4.255  0.7292 -0.2303 -0.2270
  200POPC  H16S26750   2.431   4.295   4.284  0.5736  1.6717 -0.7489
  200POPC  C21726751   2.640   4.334   4.253 -0.3335  0.1496  0.6943
  200POPC  H17R26752   2.661   4.326   4.361 -1.2548 -1.4152  0.7867
  200POPC  H17S26753   2.605   4.433   4.218 -1.4239  0.0122  1.3784
  200POPC  C21826754   2.770   4.304   4.178 -0.6780  0.0952  0.1113
  200POPC  H18R26755   2.764   4.327   4.070 -1.5106 -0.8027 -0.0508
  200POPC  H18S26756   2.781   4.194   4.182 -0.6130  0.0646 -0.9274
  200POPC  H18T26757   2.857   4.355   4.224  0.3060  0.6328 -2.3021
  200POPC   C3326758   1.712   3.973   3.223 -0.2306  0.2998 -0.2494
  200POPC   H3X26759   1.606   3.953   3.195  0.3913 -1.5478 -1.4078
  200POPC   H3Y26760   1.733   4.081   3.234  1.4978  0.2643 -2.8511
  200POPC   C3426761   1.736   3.893   3.352 -0.3468  0.3501 -0.1962
  200POPC   H4X26762   1.762   3.787   3.330  2.3103  0.9645 -0.2081
  200POPC   H4Y26763   1.641   3.890   3.408  0.9145  0.9434  2.0187
  200POPC   C3526764   1.832   3.955   3.453  0.2760 -0.4018 -0.3173
  200POPC   H5X26765   1.811   4.064   3.460  0.5747 -0.1958 -2.3369
  200POPC   H5Y26766   1.939   3.941   3.428  0.4498  0.6721 -0.1974
  200POPC   C3626767   1.826   3.891   3.592 -0.3989 -0.0897 -0.1977
  200POPC   H6X26768   1.899   3.808   3.583  1.4969  1.2857  1.8012
  200POPC   H6Y26769   1.720   3.873   3.620 -1.2155  1.5894 -2.1004
  200POPC   C3726770   1.871   4.000   3.690 -0.2737  0.0233 -0.3801
  200POPC   H7X26771   1.804   4.088   3.682 -0.5638 -0.0886  0.6548
  200POPC   H7Y26772   1.971   4.030   3.652  0.0930 -3.9308 -2.8450
  200POPC   C3826773   1.887   3.962   3.838 -0.3689 -0.3505 -0.4640
  200POPC   H8X26774   1.800   3.905   3.875 -1.7425  1.9067 -0.1063
  200POPC   H8Y26775   1.896   4.056   3.898  0.4698 -0.9842  0.4067
  200POPC   C3926776   2.011   3.881   3.874  0.0002  0.4345  0.0576
  200POPC   H9X26777   2.098   3.943   3.846  0.1408 -0.9622 -2.7455
  200POPC   H9Y26778   2.008   3.789   3.811 -1.7516 -0.6200  1.6060
  200POPC  C31026779   2.027   3.832   4.019 -0.0585  0.2842  0.0141
  200POPC  H10X26780   2.128   3.786   4.027 -0.9236 -1.7552 -0.6003
  200POPC  H10Y26781   1.958   3.748   4.036 -1.6433  1.6139  0.2520
  200POPC  C31126782   2.015   3.939   4.127  0.2318  0.5876 -0.2527
  200POPC  H11X26783   2.024   3.879   4.220 -2.5643  2.7153  1.4629
  200POPC  H11Y26784   1.918   3.992   4.121 -0.5025 -0.6885  0.2968
  200POPC  C31226785   2.118   4.053   4.131  0.9357 -0.0503 -0.1037
  200POPC  H12X26786   2.111   4.107   4.035  2.3989 -0.3184 -0.3790
  200POPC  H12Y26787   2.220   4.009   4.126  1.2206  0.7068 -1.1413
  200POPC  C31326788   2.100   4.151   4.247  0.7305  0.0860 -0.2509
  200POPC  H13X26789   2.194   4.202   4.277  1.3593 -1.6083  0.6842
  200POPC  H13Y26790   2.061   4.090   4.331 -0.2312 -0.8539 -1.3601
  200POPC  C31426791   1.995   4.258   4.216 -0.0425 -0.4620  0.4711
  200POPC  H14X26792   1.901   4.230   4.270 -2.3767  4.0302 -1.0033
  200POPC  H14Y26793   1.966   4.254   4.109 -1.1718  0.9680  0.7112
  200POPC  C31526794   2.028   4.397   4.270 -0.9815 -0.1149  0.1597
  200POPC  H15X26795   1.938   4.457   4.245 -0.0174  1.0149 -0.6619
  200POPC  H15Y26796   2.112   4.452   4.223 -0.4261 -1.1782 -0.1046
  200POPC  C31626797   2.050   4.406   4.421 -0.2700  0.6972  0.0079
  200POPC  H16X26798   2.045   4.512   4.456  0.0734  1.0208 -0.8895
  200POPC  H16Y26799   2.157   4.377   4.425 -0.0315  1.6649  0.9682
  200POPC  H16Z26800   1.984   4.339   4.479  1.0177  0.3832  1.1579
  201SOL    OH226801   2.963   3.775   6.855  0.2064 -0.5273  0.1647
  201SOL     H126802   2.948   3.764   6.761 -0.0295  1.0785  0.0057
  201SOL     H226803   2.991   3.866   6.865 -0.1995 -0.5520  1.7029
  202SOL    OH226804   6.795   2.944   8.055  0.6035  0.3316 -0.0765
  202SOL     H126805   6.713   2.902   8.030  1.7125 -2.8969  1.4201
  202SOL     H226806   6.859   2.914   7.991  1.3916 -0.1920  0.9375
  203SOL    OH226807   5.750   2.980   0.020  0.3107 -0.3798 -0.1675
  203SOL     H126808   5.806   3.047   0.058  0.1297  0.0058 -0.5843
  203SOL     H226809   5.662   3.001   0.051  0.3075 -0.6572  0.0224
  204SOL    OH226810   1.373   5.793   6.157 -0.1280  0.2181  0.4554
  204SOL     H126811   1.309   5.832   6.096 -2.2704 -2.0521  1.1498
  204SOL     H226812   1.319   5.758   6.228  1.7162 -3.3521  0.1939
  205SOL    OH226813   0.455   3.971   6.116 -0.4914 -0.1117  0.3393
  205SOL     H126814   0.463   3.932   6.204 -1.4070  1.6960  1.2439
  205SOL     H226815   0.529   4.031   6.110 -1.2937  0.9107  0.4941
  206SOL    OH226816   1.964   6.389   6.749 -0.0365 -0.3150  0.8313
  206SOL     H126817   2.024   6.338   6.803  1.1893  1.3588  1.0707
  206SOL     H226818   1.978   6.480   6.776 -0.7661  0.3607 -0.9775
  207SOL    OH226819   4.591   7.337   8.176 -0.0317 -0.2942 -0.4484
  207SOL     H126820   4.544   7.323   8.258  1.4812 -0.5601  0.3921
  207SOL     H226821   4.582   7.431   8.158 -0.2069 -0.2013  0.1303
  208SOL    OH226822   3.406   4.261   6.442  0.4044  0.5784  0.6955
  208SOL     H126823   3.478   4.247   6.381  0.3363 -0.0864  0.7713
  208SOL     H226824   3.327   4.240   6.392  0.2693  1.1625  0.6571
  209SOL    OH226825   7.694   3.056   0.821 -0.3184 -0.4457 -0.3167
  209SOL     H126826   7.665   2.984   0.877 -0.5129  0.0697  0.2542
  209SOL     H226827   7.782   3.077   0.853 -0.8863  0.6146  0.5554
  210SOL    OH226828   1.865   5.634   7.719 -0.0533 -0.1111  0.5800
  210SOL     H126829   1.948   5.624   7.673 -0.2010 -1.2908  0.5452
  210SOL     H226830   1.889   5.641   7.812  0.1659  0.9563  0.4417
  211SOL    OH226831   3.844   6.190   5.708  0.3883 -0.1864 -0.5841
  211SOL     H126832   3.786   6.124   5.747 -0.7564  0.8677 -0.4870
  211SOL     H226833   3.805   6.207   5.622 -1.3825  2.9119  0.7328
  212SOL    OH226834   3.552   0.606   0.568  0.3379 -0.6766 -0.1640
  212SOL     H126835   3.479   0.552   0.539 -0.5194 -0.3577  1.3498
  212SOL     H226836   3.527   0.695   0.544 -1.0036 -0.2307  2.6471
  213SOL    OH226837   5.486   5.815   1.110  0.0507  0.1217  0.0854
  213SOL     H126838   5.437   5.775   1.182  0.0783  0.1016  0.0934
  213SOL     H226839   5.578   5.808   1.137 -0.0048  1.0836  0.5334
  214SOL    OH226840   5.469   7.590   0.449  0.0376  0.2740  0.7348
  214SOL     H126841   5.442   7.555   0.364  0.8698  0.2364  0.4814
  214SOL     H226842   5.387   7.615   0.492 -0.3474  0.7691 -0.2858
  215SOL    OH226843   6.389   5.913   1.733 -0.1142  0.1223  0.5580
  215SOL     H126844   6.462   5.851   1.734 -0.6079 -0.4834  2.7094
  215SOL     H226845   6.313   5.860   1.709 -0.0847  0.4780 -0.3423
  216SOL    OH226846   2.345   1.436   7.014  0.0791  0.0505  0.1572
  216SOL     H126847   2.315   1.400   6.931  0.2381  0.4456 -0.0757
  216SOL     H226848   2.286   1.398   7.080  1.1275 -1.7042  0.0846
  217SOL    OH226849   7.693   1.819   6.756 -0.8464  0.5074  0.2517
  217SOL     H126850   7.722   1.735   6.792 -0.9588  1.3882  2.4621
  217SOL     H226851   7.606   1.799   6.719 -0.0000 -0.7899 -1.0990
  218SOL    OH226852   4.082   7.163   1.660  0.0139  0.6199 -0.5056
  218SOL     H126853   4.069   7.069   1.669  2.1979  0.4121  0.6230
  218SOL     H226854   4.024   7.202   1.725 -0.3043  0.0373 -0.4354
  219SOL    OH226855   4.841   6.586   0.878 -0.2145 -0.4157 -0.0392
  219SOL     H126856   4.781   6.610   0.806  0.9866 -0.8217 -1.1970
  219SOL     H226857   4.784   6.544   0.943 -1.2475 -0.5141 -0.9789
  220SOL    OH226858   5.789   5.489   1.729  0.4463 -0.0429 -0.2134
  220SOL     H126859   5.844   5.484   1.651 -1.2642  0.8290 -1.4821
  220SOL     H226860   5.699   5.483   1.697 -0.3264  1.1965  1.5984
  221SOL    OH226861   6.995   2.213   0.012 -0.0133  0.0513  0.2649
  221SOL     H126862   6.966   2.289   0.062  0.1397  0.3459 -0.0920
  221SOL     H226863   6.925   2.198  -0.053 -0.0436 -0.1141  0.3349
  222SOL    OH226864   4.763   6.186   7.199 -0.7224  0.1475  0.6146
  222SOL     H126865   4.734   6.095   7.201 -1.9721  0.5494  1.4194
  222SOL     H226866   4.807   6.199   7.283 -0.9994  0.4253  0.7190
  223SOL    OH226867   5.788   7.679   6.511 -0.0885 -0.1830 -0.1472
  223SOL     H126868   5.784   7.733   6.589 -0.6241  0.5782 -0.6955
  223SOL     H226869   5.860   7.716   6.460  0.2405 -0.6593 -0.0384
  224SOL    OH226870   2.702   0.746   6.277 -0.0626 -0.1741 -0.7290
  224SOL     H126871   2.697   0.652   6.255 -0.1252  0.1351 -2.0982
  224SOL     H226872   2.791   0.758   6.310 -0.3344 -0.8844  0.2735
  225SOL    OH226873   3.833   1.067   6.827 -0.6096  0.1146  0.3664
  225SOL     H126874   3.829   0.985   6.777  2.7505  0.9676 -1.4495
  225SOL     H226875   3.783   1.130   6.776  0.3502  0.2407 -0.4266
  226SOL    OH226876   0.321   0.775   1.210  0.3671 -0.1228 -0.4739
  226SOL     H126877   0.271   0.831   1.270  0.4405 -0.3335 -0.2166
  226SOL     H226878   0.412   0.786   1.237  0.3105 -0.9987  0.1094
  227SOL    OH226879   3.920   1.518   0.094 -0.2570 -0.6952 -0.1779
  227SOL     H126880   3.839   1.570   0.096  1.0386  1.3834  0.2455
  227SOL     H226881   3.947   1.519   0.003  0.4494  0.5126  0.0310
  228SOL    OH226882   5.503   1.993   0.764 -0.5849 -0.0420 -0.5674
  228SOL     H126883   5.535   1.910   0.728 -0.6286 -0.8386  1.1730
  228SOL     H226884   5.572   2.020   0.824 -1.7781 -0.1987  0.8968
  229SOL    OH226885   3.543   1.527   0.327  0.1246 -0.2520 -0.4958
  229SOL     H126886   3.474   1.461   0.334 -0.2977  0.2716  0.2395
  229SOL     H226887   3.502   1.601   0.282  0.5310 -0.3844 -1.0962
  230SOL    OH226888   0.080   4.890   1.866 -0.0703  0.3701 -0.2348
  230SOL     H126889   0.154   4.883   1.806  1.3246  1.1417  1.3391
  230SOL     H226890   0.089   4.977   1.905 -1.6501  0.3605  0.1686
  231SOL    OH226891   6.818   1.731   3.037  0.1398 -0.0825  0.1588
  231SOL     H126892   6.797   1.734   3.131  0.0911  0.3441  0.1364
  231SOL     H226893   6.798   1.642   3.011  1.4620 -0.5998  0.8651
  232SOL    OH226894   3.317   4.873   7.482 -0.2150  0.3108 -0.2398
  232SOL     H126895   3.246   4.869   7.546  0.7418  0.9377  0.8742
  232SOL     H226896   3.309   4.959   7.442 -0.3567  0.2063 -0.4363
  233SOL    OH226897   3.637   6.400   7.355 -0.0534 -0.2449  0.0744
  233SOL     H126898   3.732   6.405   7.347  0.0707 -0.7607  1.1126
  233SOL     H226899   3.617   6.307   7.343 -0.2281 -0.4397  1.6635
  234SOL    OH226900   5.166   0.020   1.609 -0.5151 -0.1697 -0.6759
  234SOL     H126901   5.127   0.048   1.526  1.3783  2.5947 -0.7016
  234SOL     H226902   5.170   0.100   1.661  2.1643 -1.0424  0.5213
  235SOL    OH226903   0.213   2.730   1.974 -0.2253  0.8207 -0.2486
  235SOL     H126904   0.136   2.786   1.976 -0.7382  0.1543 -1.0067
  235SOL     H226905   0.184   2.648   2.012 -0.1041  0.3206 -1.2151
  236SOL    OH226906   1.381   4.814   1.606  0.5085 -0.1460 -0.7127
  236SOL     H126907   1.393   4.859   1.689 -0.0322  0.0981 -0.7668
  236SOL     H226908   1.372   4.884   1.541  1.0082 -0.3345 -0.9919
  237SOL    OH226909   4.600   7.616   8.211  0.1008  0.5505 -0.0600
  237SOL     H126910   4.599   7.707   8.242 -1.0589  0.4824  0.1404
  237SOL     H226911   4.608   7.563   8.291  2.1555  0.5020 -0.2790
  238SOL    OH226912   0.871   4.086   7.233  0.0908 -0.1443  0.0070
  238SOL     H126913   0.794   4.143   7.227  0.4316  0.4759  1.2130
  238SOL     H226914   0.908   4.087   7.145 -0.7695  0.2897 -0.3598
  239SOL    OH226915   6.193   3.314   1.185  0.0457  0.0758  0.6849
  239SOL     H126916   6.174   3.246   1.121  1.3075  0.2724  0.0793
  239SOL     H226917   6.235   3.268   1.258 -0.5804 -0.0213  0.9854
  240SOL    OH226918   3.308   5.574   5.986 -0.4698  0.0548  0.0086
  240SOL     H126919   3.242   5.505   5.994  1.7123 -2.2528 -1.3056
  240SOL     H226920   3.340   5.567   5.896  1.5484  1.1457  0.6028
  241SOL    OH226921   7.538   1.540   0.860 -0.6981  0.1799  0.0747
  241SOL     H126922   7.450   1.552   0.824 -0.5040  0.4609 -0.3002
  241SOL     H226923   7.571   1.461   0.817 -0.2258  0.8663 -0.8261
  242SOL    OH226924   2.615   2.480   2.066  0.2906 -0.2601 -1.0259
  242SOL     H126925   2.608   2.385   2.069  1.3981 -0.4039 -2.4507
  242SOL     H226926   2.684   2.501   2.130  0.4323 -0.4575 -1.1137
  243SOL    OH226927   0.694   5.476   2.640  0.2829 -0.0748  0.4306
  243SOL     H126928   0.708   5.383   2.658 -1.7686 -0.6776 -0.8379
  243SOL     H226929   0.775   5.519   2.665  1.4696 -2.3052  0.4735
  244SOL    OH226930   1.606   3.301   1.332  0.2705  0.5901  0.0459
  244SOL     H126931   1.665   3.374   1.351  0.8902 -0.3190  1.7247
  244SOL     H226932   1.654   3.248   1.269  0.7168  0.5310  0.4287
  245SOL    OH226933   2.347   4.371   7.905 -0.1119 -0.0823 -0.7833
  245SOL     H126934   2.441   4.367   7.923 -0.6742 -0.9567  2.2450
  245SOL     H226935   2.320   4.279   7.897 -0.6273  0.1791 -2.2469
  246SOL    OH226936   2.429   7.430   7.890  0.5969 -0.2427 -0.7163
  246SOL     H126937   2.368   7.453   7.960  0.2415 -0.3222 -0.9925
  246SOL     H226938   2.513   7.467   7.917  1.0824 -2.4774  0.9754
  247SOL    OH226939   0.913   7.008   6.943 -0.6795  0.0862  0.0747
  247SOL     H126940   0.973   6.961   6.885  0.8334  2.4842 -0.3820
  247SOL     H226941   0.853   7.053   6.884 -1.5671 -0.5385  0.4861
  248SOL    OH226942   2.606   3.013   7.109  0.3279 -0.1701 -0.6480
  248SOL     H126943   2.553   3.086   7.140  0.2767 -0.6206  0.3496
  248SOL     H226944   2.695   3.036   7.135  0.6526  0.6137 -2.3702
  249SOL    OH226945   7.792   4.171   0.299  0.7263 -0.5725  0.1672
  249SOL     H126946   7.841   4.096   0.333  0.4240  0.0475  1.9823
  249SOL     H226947   7.854   4.243   0.300 -0.3025  0.3047  2.8220
  250SOL    OH226948   6.265   2.967   6.792  1.0882 -0.1187 -0.3169
  250SOL     H126949   6.354   3.002   6.800  0.6005  0.9131  0.7203
  250SOL     H226950   6.277   2.872   6.795  1.9677  0.0166  2.3589
  251SOL    OH226951   4.786   3.069   1.138 -0.0881  0.0855  0.3803
  251SOL     H126952   4.768   2.987   1.184 -0.6415  0.6098  1.1338
  251SOL     H226953   4.713   3.126   1.164  0.2161  0.7619 -0.2477
  252SOL    OH226954   1.683   0.448   2.460  0.2069 -0.4706  0.4344
  252SOL     H126955   1.602   0.408   2.493  0.4160 -0.0421  1.5018
  252SOL     H226956   1.654   0.504   2.388 -0.9672  2.4203  3.0106
  253SOL    OH226957   7.564   5.439   7.111  0.6195 -0.0328  0.3241
  253SOL     H126958   7.508   5.361   7.115  1.6620 -0.8219 -0.1301
  253SOL     H226959   7.603   5.435   7.024 -1.2068  2.3546 -0.6727
  254SOL    OH226960   7.105   6.043   1.628 -0.2378  0.0685  0.1743
  254SOL     H126961   7.108   6.134   1.658  0.8720  0.7123 -1.7837
  254SOL     H226962   7.020   6.033   1.586 -0.9316 -0.2166  1.6455
  255SOL    OH226963   5.009   1.469   1.751 -0.3949  0.3797  0.2415
  255SOL     H126964   5.062   1.518   1.687  0.4682 -0.7196  0.0944
  255SOL     H226965   4.926   1.516   1.754 -0.1835  0.8799 -1.1436
  256SOL    OH226966   3.746   3.639   7.814 -0.6030 -0.2171  0.2111
  256SOL     H126967   3.705   3.616   7.897 -0.3710  1.1738  0.7183
  256SOL     H226968   3.674   3.646   7.752 -0.7047 -2.0893  0.0771
  257SOL    OH226969   4.480   1.450   7.921 -0.3438 -0.1288  0.0207
  257SOL     H126970   4.400   1.449   7.868  0.2867  0.6204 -0.9679
  257SOL     H226971   4.483   1.363   7.961 -0.7012 -0.7984 -1.3714
  258SOL    OH226972   6.793   7.541   6.036 -0.0235 -0.3434  0.4117
  258SOL     H126973   6.778   7.479   5.964  1.3358 -2.4479  1.8969
  258SOL     H226974   6.706   7.568   6.063 -0.6807 -2.4674  0.4692
  259SOL    OH226975   5.630   1.767   0.632  0.1266  0.0295 -0.5285
  259SOL     H126976   5.638   1.726   0.546  2.4041  1.3799 -0.9891
  259SOL     H226977   5.719   1.770   0.666 -0.5866  0.6712  1.3375
  260SOL    OH226978   1.226   0.725   7.657 -0.1173  0.3110  0.6497
  260SOL     H126979   1.224   0.815   7.692 -2.2029  0.6122 -0.1554
  260SOL     H226980   1.171   0.729   7.579  1.3465 -1.2598 -0.4892
  261SOL    OH226981   3.689   1.669   0.087  0.5207  0.4198  0.1514
  261SOL     H126982   3.698   1.765   0.082 -0.9210  0.4604 -2.5510
  261SOL     H226983   3.596   1.653   0.071  1.0560 -1.5180 -1.2002
  262SOL    OH226984   1.018   5.465   0.393  0.2697 -0.1580  0.1882
  262SOL     H126985   1.077   5.527   0.435 -1.2462 -0.2155  2.5135
  262SOL     H226986   0.937   5.515   0.378 -0.7190 -1.3555  1.4447
  263SOL    OH226987   3.649   0.557   6.082 -0.1116  0.3766 -0.0852
  263SOL     H126988   3.673   0.567   5.990  1.2389 -1.6584  0.0312
  263SOL     H226989   3.635   0.647   6.112 -0.3652  1.0847 -2.2006
  264SOL    OH226990   7.634   1.426   0.604 -0.1412  0.9278 -0.0688
  264SOL     H126991   7.602   1.508   0.566  0.4834  0.7562 -0.9982
  264SOL     H226992   7.680   1.383   0.532  0.0183  0.0196  0.5659
  265SOL    OH226993   7.690   5.191   7.805  0.7678  0.1752 -0.2410
  265SOL     H126994   7.619   5.175   7.867 -0.5046 -1.1080 -1.9910
  265SOL     H226995   7.748   5.252   7.851 -1.3606  1.1149  1.2852
  266SOL    OH226996   1.130   4.641   1.886 -0.3153  0.3636  0.2018
  266SOL     H126997   1.116   4.732   1.911  2.1126  1.5061 -2.2790
  266SOL     H226998   1.197   4.610   1.948  0.1682  0.8280 -0.0856
  267SOL    OH226999   7.575   4.103   6.971  0.0616  0.4652 -0.1496
  267SOL     H127000   7.526   4.064   6.899  0.3462  0.9985 -0.6317
  267SOL     H227001   7.529   4.073   7.050  1.0663 -2.0017 -0.4307
  268SOL    OH227002   4.455   5.524   6.678 -0.3834  0.0640 -0.4966
  268SOL     H127003   4.441   5.616   6.654 -2.3352 -0.2773 -0.7717
  268SOL     H227004   4.546   5.507   6.654 -0.4618  1.4835 -1.9548
  269SOL    OH227005   3.823   6.366   6.874 -0.0380  0.5515  0.6499
  269SOL     H127006   3.869   6.289   6.908 -0.4207  0.3921  0.8125
  269SOL     H227007   3.836   6.433   6.940  0.4793  0.6963  0.4085
  270SOL    OH227008   5.882   0.171   0.505  0.2912 -0.3893 -0.2766
  270SOL     H127009   5.927   0.212   0.431  0.4478 -1.6324 -0.8650
  270SOL     H227010   5.852   0.087   0.472  0.6716 -1.1039  1.1842
  271SOL    OH227011   4.728   2.680   1.816  0.0728 -0.1981 -0.3666
  271SOL     H127012   4.713   2.748   1.881  0.6616  0.3928 -0.8500
  271SOL     H227013   4.798   2.626   1.853 -1.3226 -1.3397  0.6322
  272SOL    OH227014   7.234   2.879   0.758  0.8656 -0.6128  0.0735
  272SOL     H127015   7.316   2.922   0.734  0.7889 -0.7719 -0.4612
  272SOL     H227016   7.167   2.924   0.707  0.7143 -0.9926 -0.0603
  273SOL    OH227017   6.466   4.728   1.556 -0.5470  0.1141 -0.5391
  273SOL     H127018   6.445   4.735   1.463  2.3879  3.3355 -1.0290
  273SOL     H227019   6.448   4.815   1.591  1.4296 -0.1715  1.2449
  274SOL    OH227020   6.489   5.628   1.713 -0.2655 -0.3290  0.5477
  274SOL     H127021   6.564   5.573   1.738 -0.9040 -1.1989  0.5870
  274SOL     H227022   6.418   5.601   1.771 -0.1663  1.6531  1.6272
  275SOL    OH227023   0.020   3.309   1.914  0.0968  0.4287  0.4566
  275SOL     H127024   0.077   3.301   1.837  0.2722 -1.2305  0.7357
  275SOL     H227025   0.053   3.386   1.960  2.3364 -0.6886  0.7713
  276SOL    OH227026   0.678   2.002   0.506  0.0912 -0.4666 -0.2542
  276SOL     H127027   0.691   1.972   0.416  1.3265  0.3768 -0.3647
  276SOL     H227028   0.590   2.039   0.507 -1.1563 -3.2843 -0.3319
  277SOL    OH227029   3.254   7.294   8.155 -0.3694 -0.0072 -0.0501
  277SOL     H127030   3.310   7.364   8.121 -0.8324  0.9455  1.1136
  277SOL     H227031   3.282   7.215   8.108  3.0933  0.1060  1.6905
  278SOL    OH227032   1.402   5.652   5.663  0.0637 -0.1697  0.1866
  278SOL     H127033   1.433   5.738   5.691 -0.5982  0.3171 -0.5518
  278SOL     H227034   1.465   5.590   5.701  1.6586  0.7644 -0.8802
  279SOL    OH227035   3.632   0.148   7.189  0.4237  0.0486  0.3452
  279SOL     H127036   3.666   0.132   7.278 -2.8779  0.0544  1.6755
  279SOL     H227037   3.657   0.070   7.140  2.2236  0.0087  1.2705
  280SOL    OH227038   4.039   2.232   0.722 -0.5626 -0.0631  0.6019
  280SOL     H127039   3.970   2.262   0.781 -1.1620 -0.6830  0.2305
  280SOL     H227040   3.996   2.227   0.636 -0.5527 -2.1427  0.6780
  281SOL    OH227041   2.806   1.947   6.874  0.1402 -0.2220 -0.5031
  281SOL     H127042   2.721   1.963   6.833  0.1467 -0.0616 -0.4579
  281SOL     H227043   2.800   1.858   6.909  0.3281 -0.5611 -1.3223
  282SOL    OH227044   2.326   0.196   1.206 -0.1447  0.0650  0.5800
  282SOL     H127045   2.367   0.257   1.144 -0.0647  0.7683  1.3262
  282SOL     H227046   2.334   0.111   1.164 -0.9646  0.6600 -0.8473
  283SOL    OH227047   4.569   0.492   1.796 -0.2603  0.4478 -0.5150
  283SOL     H127048   4.664   0.499   1.801 -0.2950 -0.1406  1.7229
  283SOL     H227049   4.552   0.413   1.745  0.3902  1.7746 -2.8663
  284SOL    OH227050   4.658  -0.002   0.529 -0.4518  0.1983  0.3314
  284SOL     H127051   4.715   0.025   0.601  2.1994 -0.6799 -1.3388
  284SOL     H227052   4.655   0.075   0.471 -0.0419 -0.1134 -0.1129
  285SOL    OH227053   5.425   0.958   1.797 -0.5500  0.2109 -0.8169
  285SOL     H127054   5.459   0.869   1.786  1.0031  0.8238 -1.2144
  285SOL     H227055   5.347   0.948   1.851  0.0841 -1.3102 -0.1510
  286SOL    OH227056   2.346   6.031   2.307  0.2404 -0.1822  0.3813
  286SOL     H127057   2.344   6.104   2.369 -0.5057 -0.5980  0.8575
  286SOL     H227058   2.368   5.954   2.360 -0.5598 -0.5670  0.1732
  287SOL    OH227059   1.827   5.362   0.443 -0.4094  0.0696 -0.3597
  287SOL     H127060   1.869   5.383   0.527 -1.2022 -1.1246  0.3507
  287SOL     H227061   1.824   5.267   0.441  0.4802  0.0674 -2.2053
  288SOL    OH227062   6.133   0.688   8.046 -0.1980  0.0328 -0.6770
  288SOL     H127063   6.088   0.748   7.987 -0.8481 -0.4836 -0.7183
  288SOL     H227064   6.065   0.660   8.107 -0.1223 -1.3930 -1.2305
  289SOL    OH227065   7.451   7.170   8.254  0.2043 -0.0460  0.5493
  289SOL     H127066   7.522   7.145   8.195 -0.6524  0.1697 -0.5950
  289SOL     H227067   7.494   7.216   8.325  1.1240  0.8986 -0.6056
  290SOL    OH227068   6.992   0.132   7.688  0.0024 -0.5910  0.3587
  290SOL     H127069   7.056   0.182   7.738  0.0309 -1.9097  1.6855
  290SOL     H227070   6.908   0.150   7.732 -0.3693  0.1898 -0.6433
  291SOL    OH227071   6.262   2.741   7.284  0.1507  0.3092 -0.1081
  291SOL     H127072   6.213   2.774   7.209 -1.5113  1.4498  1.4464
  291SOL     H227073   6.240   2.648   7.288 -0.1396  0.3475 -0.7299
  292SOL    OH227074   2.464   0.619   5.726 -0.6442 -0.0862 -0.1412
  292SOL     H127075   2.408   0.685   5.685 -0.6745  0.0789  0.1599
  292SOL     H227076   2.408   0.541   5.732 -0.1056 -0.6250 -1.9280
  293SOL    OH227077   0.538   1.177   1.335 -0.2121  0.2382 -0.3992
  293SOL     H127078   0.628   1.184   1.368  0.0131 -2.2936 -0.4079
  293SOL     H227079   0.549   1.172   1.240 -0.3769  0.0213 -0.4052
  294SOL    OH227080   4.916   5.248   1.323  0.0187 -0.0687 -0.2197
  294SOL     H127081   4.859   5.172   1.329  0.8359 -0.6747 -0.1709
  294SOL     H227082   4.941   5.268   1.413 -0.2535  0.3058 -0.2240
  295SOL    OH227083   4.470   3.390   2.172 -0.7008 -0.2772  0.0680
  295SOL     H127084   4.417   3.315   2.197 -0.8911 -0.1296  0.1110
  295SOL     H227085   4.555   3.373   2.213 -0.7689 -0.4274  0.1486
  296SOL    OH227086   5.012   4.451   8.261  0.0692 -0.1950 -0.1437
  296SOL     H127087   5.068   4.401   8.320 -0.6014 -0.8190 -0.0305
  296SOL     H227088   5.069   4.519   8.226  0.0536  1.2210  2.4770
  297SOL    OH227089   5.798   5.038   0.533 -0.0673  0.2404 -0.4080
  297SOL     H127090   5.717   5.028   0.584 -1.9402  0.9140 -3.1166
  297SOL     H227091   5.811   4.953   0.492  1.5285 -0.3489  1.2555
  298SOL    OH227092   5.934   3.057   1.872  0.1607  0.3214 -0.2509
  298SOL     H127093   5.864   3.066   1.936  0.2757  0.4838 -0.1467
  298SOL     H227094   5.935   2.964   1.849 -1.1255  0.5893 -1.4267
  299SOL    OH227095   0.075   1.331   7.270  0.7094  0.4718 -0.2445
  299SOL     H127096   0.095   1.423   7.255  0.7516  0.3137 -1.2014
  299SOL     H227097  -0.012   1.332   7.310  1.9054  1.0639  2.4244
  300SOL    OH227098   7.188   1.917   2.327 -0.1513 -0.0484  0.0342
  300SOL     H127099   7.185   1.834   2.375  0.1048 -1.3052 -2.0692
  300SOL     H227100   7.280   1.940   2.323 -0.2376  0.4388  0.7733
  301SOL    OH227101   2.769   5.362   0.582 -0.5707 -0.7821 -0.1887
  301SOL     H127102   2.719   5.380   0.503  1.3030 -1.3728 -1.5390
  301SOL     H227103   2.778   5.266   0.583 -2.0347 -0.9281  1.6669
  302SOL    OH227104   3.503   6.346   0.030  0.3919 -0.0444 -0.5640
  302SOL     H127105   3.477   6.367  -0.060  0.3271  0.8616 -0.3355
  302SOL     H227106   3.569   6.412   0.051  0.1283 -0.0244  0.1879
  303SOL    OH227107   1.468   0.326   0.169  0.2674  0.7915  0.0144
  303SOL     H127108   1.374   0.322   0.148  0.8003 -0.9467 -2.1862
  303SOL     H227109   1.477   0.276   0.250 -0.4793 -0.4835 -0.6713
  304SOL    OH227110   3.732   1.248   7.762 -0.0369  0.0214  0.5530
  304SOL     H127111   3.755   1.327   7.714  0.7290 -0.5200  0.0245
  304SOL     H227112   3.674   1.278   7.832 -0.7486  0.8775 -0.4049
  305SOL    OH227113   0.200   6.799   1.630 -0.0923 -0.4717 -0.0931
  305SOL     H127114   0.174   6.736   1.697 -0.7775 -0.4375 -0.3179
  305SOL     H227115   0.277   6.761   1.589 -1.0982 -1.6496 -0.9120
  306SOL    OH227116   6.943   2.129   1.817 -0.0767 -0.5481 -0.2377
  306SOL     H127117   6.948   2.035   1.835  0.5957 -0.3901  0.4273
  306SOL     H227118   6.954   2.171   1.903  0.6734  0.1556 -0.6668
  307SOL    OH227119   5.444   7.384   7.093 -0.1256 -0.3500  0.4058
  307SOL     H127120   5.481   7.316   7.149 -0.3464 -0.5852  0.2672
  307SOL     H227121   5.520   7.430   7.058  0.0228 -0.4856  0.5496
  308SOL    OH227122   3.758   6.870   1.747  1.0337  0.0880 -0.0832
  308SOL     H127123   3.713   6.789   1.723  0.9672  0.4497 -1.2062
  308SOL     H227124   3.847   6.860   1.713  0.9478  0.5917 -0.4698
  309SOL    OH227125   0.796   1.846  -0.001 -0.0151  0.3527  0.0141
  309SOL     H127126   0.813   1.762   0.042 -1.0553 -1.2145 -2.5280
  309SOL     H227127   0.721   1.882   0.046  0.3801 -0.1666  1.0660
  310SOL    OH227128   3.165   2.825   2.221  0.4523  0.4784  0.3530
  310SOL     H127129   3.232   2.868   2.167 -1.9204  2.6224 -1.0258
  310SOL     H227130   3.094   2.806   2.159 -0.6943 -0.6418  1.9945
  311SOL    OH227131   0.381   3.297   2.015 -0.0512 -0.0031  0.4547
  311SOL     H127132   0.467   3.309   2.054  0.8168 -0.9355 -1.1197
  311SOL     H227133   0.395   3.311   1.921 -2.0044  1.7922  0.3914
  312SOL    OH227134   2.287   0.727   0.093  0.8933 -0.1876 -0.1448
  312SOL     H127135   2.309   0.803   0.040  0.0563 -0.2007 -0.5154
  312SOL     H227136   2.354   0.724   0.161  1.6834  0.1117 -0.9150
  313SOL    OH227137   7.776   4.534   1.212 -0.5471  0.2175 -0.1976
  313SOL     H127138   7.862   4.513   1.176  0.0263 -0.2743  1.4262
  313SOL     H227139   7.715   4.476   1.165 -0.2390  1.6970 -2.4967
  314SOL    OH227140   1.112   6.883   7.773 -0.3732  0.5496  0.5234
  314SOL     H127141   1.103   6.842   7.859 -1.1119 -1.1540 -0.3316
  314SOL     H227142   1.101   6.810   7.711  0.1486  1.7483 -1.0059
  315SOL    OH227143   0.805   3.524   8.034  0.8329 -0.4989  0.4098
  315SOL     H127144   0.750   3.528   7.956 -0.2525 -2.7800  1.0221
  315SOL     H227145   0.797   3.611   8.074 -1.8642 -0.6009  0.1500
  316SOL    OH227146   4.767   0.449   6.680 -0.0900  0.6333  0.5557
  316SOL     H127147   4.787   0.527   6.731  0.5121 -1.4720  3.6907
  316SOL     H227148   4.845   0.393   6.690 -1.7464 -1.6740  1.0707
  317SOL    OH227149   1.474   0.338   1.390 -0.5068  0.2455 -0.0838
  317SOL     H127150   1.425   0.310   1.313  0.3412 -0.7624 -0.2734
  317SOL     H227151   1.543   0.272   1.399  0.3342  1.2109  0.6296
  318SOL    OH227152   7.765   3.637   1.637 -0.1036 -0.5805 -0.3607
  318SOL     H127153   7.735   3.624   1.547 -0.2731  0.7953 -0.5068
  318SOL     H227154   7.835   3.703   1.631  0.6447 -1.2776  0.3880
  319SOL    OH227155   6.500   2.125   6.750  0.4463 -0.0699  0.0426
  319SOL     H127156   6.506   2.066   6.825  1.5913 -0.0356  0.0005
  319SOL     H227157   6.592   2.145   6.729  0.1697 -0.7341 -1.8893
  320SOL    OH227158   1.186   0.874   2.159  0.2121  0.0625  0.0361
  320SOL     H127159   1.136   0.845   2.235 -0.2070 -1.5094 -0.8166
  320SOL     H227160   1.163   0.812   2.090 -0.5150  2.3137 -1.7913
  321SOL    OH227161   3.273   0.928   6.234  0.3096 -0.0228  0.1970
  321SOL     H127162   3.353   0.977   6.219 -0.7321  1.2714 -1.2355
  321SOL     H227163   3.240   0.960   6.318  0.6276  0.3470  0.1759
  322SOL    OH227164   2.516   3.723   6.886  0.3483  0.4083 -0.0335
  322SOL     H127165   2.596   3.682   6.920 -0.5769 -0.6550  0.8909
  322SOL     H227166   2.467   3.749   6.964 -0.5011  0.5007 -0.5914
  323SOL    OH227167   5.546   3.855   1.129 -0.1111 -0.4068 -0.2295
  323SOL     H127168   5.599   3.825   1.203  0.1706 -0.1019 -0.3058
  323SOL     H227169   5.457   3.828   1.151  0.0794 -0.9441 -0.1148
  324SOL    OH227170   1.322   5.353   0.929 -0.3049  0.6168  0.5166
  324SOL     H127171   1.241   5.311   0.899  0.8461 -1.5502  0.3543
  324SOL     H227172   1.307   5.367   1.023 -0.3549 -1.0870  0.7897
  325SOL    OH227173   3.771   0.409   6.767 -0.2596  0.0764  0.5799
  325SOL     H127174   3.780   0.317   6.789  1.3512 -0.1100 -0.7570
  325SOL     H227175   3.719   0.410   6.687  1.6361  0.1380 -0.7013
  326SOL    OH227176   7.299   7.546   6.459 -0.5951 -0.0752 -0.2126
  326SOL     H127177   7.368   7.513   6.402 -0.5408  0.9474 -0.7540
  326SOL     H227178   7.280   7.634   6.425 -1.1144  0.2339  0.8593
  327SOL    OH227179   6.370   1.205   1.632  0.1901 -0.2103  0.0052
  327SOL     H127180   6.396   1.129   1.684 -0.5420 -0.3508  0.1628
  327SOL     H227181   6.311   1.254   1.688  0.4531  0.3451 -0.1950
  328SOL    OH227182   7.673   2.331   6.696 -0.0751  0.3160  0.0197
  328SOL     H127183   7.601   2.312   6.635 -0.1295 -0.2400  0.2611
  328SOL     H227184   7.647   2.291   6.778  0.9474 -0.7075 -0.1431
  329SOL    OH227185   1.568   5.936   7.354 -0.1440 -0.2844  0.8122
  329SOL     H127186   1.581   5.850   7.313  0.5176  0.5110 -0.6958
  329SOL     H227187   1.602   5.998   7.290  1.3019  0.9946  2.7715
  330SOL    OH227188   5.658   6.397   0.801 -0.1899 -0.6339  0.2440
  330SOL     H127189   5.574   6.374   0.761  0.6165  1.7750 -3.0204
  330SOL     H227190   5.715   6.322   0.782 -0.9795 -1.3480  0.6458
  331SOL    OH227191   4.101   4.610   0.031 -0.2871  0.0950  0.6126
  331SOL     H127192   4.081   4.639  -0.058  0.8544 -0.5852  0.1338
  331SOL     H227193   4.074   4.684   0.087 -1.0619  0.4996 -0.2749
  332SOL    OH227194   4.531   1.602   1.367  0.4219 -0.2976  0.1773
  332SOL     H127195   4.561   1.535   1.428  0.9128  0.7414  1.0803
  332SOL     H227196   4.582   1.679   1.389  0.7716  0.0292 -1.6938
  333SOL    OH227197   1.834   4.140   7.683 -0.1000 -0.0017  0.5450
  333SOL     H127198   1.869   4.114   7.598 -0.3020  1.5562 -0.0300
  333SOL     H227199   1.743   4.110   7.681 -0.3686  0.8503 -0.1605
  334SOL    OH227200   5.555   1.831   7.929 -0.0050 -0.2606  0.2129
  334SOL     H127201   5.575   1.737   7.924  1.1371 -0.0262  0.0969
  334SOL     H227202   5.539   1.847   8.022  3.9353  0.1925  0.9126
  335SOL    OH227203   0.800   2.406   1.650 -0.0880  0.4907  0.2768
  335SOL     H127204   0.831   2.369   1.733 -1.1597  2.0612  1.4162
  335SOL     H227205   0.841   2.352   1.583  3.5747  1.3274  1.7542
  336SOL    OH227206   6.279   7.140   0.394  0.0924 -0.1732  0.4136
  336SOL     H127207   6.193   7.174   0.372 -0.2006  0.3585  2.3485
  336SOL     H227208   6.297   7.172   0.483  1.9965 -0.8106  0.2951
  337SOL    OH227209   3.563   4.419   1.067 -0.7072  0.0130 -0.0405
  337SOL     H127210   3.493   4.363   1.033  0.3794 -1.3225 -0.1365
  337SOL     H227211   3.614   4.361   1.124  0.3659  0.9409 -0.0462
  338SOL    OH227212   6.430   7.391   6.139  0.0167  0.0889 -0.2065
  338SOL     H127213   6.450   7.304   6.103  1.7427 -0.1474  1.3037
  338SOL     H227214   6.508   7.443   6.122 -0.3234  0.8498  0.5345
  339SOL    OH227215   5.564   6.693   6.796 -0.5125 -0.2794  0.2873
  339SOL     H127216   5.537   6.622   6.854 -0.8991 -1.5536 -1.4193
  339SOL     H227217   5.558   6.656   6.708  3.6487  0.3816 -0.4071
  340SOL    OH227218   1.385   4.904   8.052 -0.6219 -0.1871 -0.6320
  340SOL     H127219   1.411   4.997   8.052 -2.6414  0.3952  0.0356
  340SOL     H227220   1.381   4.881   7.960  0.5157  0.1983 -0.7939
  341SOL    OH227221   0.751   2.775   1.389 -0.2615 -0.3100 -0.2460
  341SOL     H127222   0.807   2.811   1.320  1.3348 -0.3108  1.0184
  341SOL     H227223   0.687   2.722   1.342  0.5858 -0.0414 -1.7612
  342SOL    OH227224   1.715   1.759   7.592 -0.0401  0.1437 -0.0741
  342SOL     H127225   1.693   1.720   7.676 -1.3388  2.2491  0.5981
  342SOL     H227226   1.811   1.754   7.587  0.1488  1.2276  2.1345
  343SOL    OH227227   5.262   3.131   1.501  0.0446 -0.0773  0.7424
  343SOL     H127228   5.222   3.055   1.542 -1.6354  0.8210  0.8116
  343SOL     H227229   5.224   3.134   1.413 -0.8598  1.3717  1.1570
  344SOL    OH227230   5.075   2.817   2.116 -0.7240 -0.2769 -0.7526
  344SOL     H127231   5.030   2.840   2.035  2.0554  2.0277 -1.7011
  344SOL     H227232   5.082   2.899   2.164  1.5702 -0.7624 -0.1952
  345SOL    OH227233   4.455   6.937   8.197 -0.1633 -0.1419 -0.1974
  345SOL     H127234   4.440   6.842   8.190 -1.5394  0.1843 -2.2141
  345SOL     H227235   4.380   6.969   8.246  0.0798 -0.0476  0.1093
  346SOL    OH227236   4.663   0.426   0.190  0.7210 -0.1479 -0.2920
  346SOL     H127237   4.682   0.519   0.192  1.8241 -0.3728  0.3848
  346SOL     H227238   4.568   0.420   0.198  0.6391  0.9210 -0.5037
  347SOL    OH227239   6.454   3.332   2.043  0.3260 -0.2740  0.0862
  347SOL     H127240   6.481   3.249   2.005  1.2079 -0.5064  1.2115
  347SOL     H227241   6.455   3.317   2.138 -2.4586  0.1079  0.2070
  348SOL    OH227242   7.964   7.837   0.934  0.2249 -0.5766 -0.4554
  348SOL     H127243   7.970   7.922   0.890 -0.5078 -0.4577 -0.3293
  348SOL     H227244   7.905   7.786   0.878 -0.3169 -0.5896  0.1197
  349SOL    OH227245   0.027   1.906   6.725  0.1141 -0.1153  0.3687
  349SOL     H127246  -0.044   1.909   6.789 -0.0203 -0.5648  0.2409
  349SOL     H227247   0.102   1.871   6.773  0.8625  2.3071  1.0755
  350SOL    OH227248   3.412   2.562   6.883  0.0715  0.8040 -0.8551
  350SOL     H127249   3.414   2.639   6.941 -1.2892 -0.2032  0.5849
  350SOL     H227250   3.323   2.563   6.847 -0.0783 -0.2881 -0.5322
  351SOL    OH227251   5.032   4.294   1.808  0.4134  0.0103 -0.0511
  351SOL     H127252   5.006   4.216   1.760  0.7112  0.1888 -0.5022
  351SOL     H227253   4.950   4.343   1.819  0.0667 -0.7603  0.9870
  352SOL    OH227254   0.438   7.872   7.092 -0.8365 -0.1323  0.1456
  352SOL     H127255   0.496   7.903   7.162 -1.8436 -0.0810  0.9768
  352SOL     H227256   0.367   7.937   7.089 -0.8664 -0.1963 -0.8526
  353SOL    OH227257   6.346   0.334   0.654  0.0980 -0.1467 -0.0136
  353SOL     H127258   6.309   0.329   0.566  0.5447 -1.4717 -0.1347
  353SOL     H227259   6.434   0.299   0.646  0.2931  0.1182  0.8799
  354SOL    OH227260   6.275   4.905   7.819  0.8093 -0.2515  0.1651
  354SOL     H127261   6.289   4.811   7.821  2.3900 -0.0412  0.0184
  354SOL     H227262   6.357   4.942   7.852  0.3671  1.0849 -0.1844
  355SOL    OH227263   3.526   1.300   6.920  0.1780  0.8145 -0.1245
  355SOL     H127264   3.461   1.329   6.984  0.3242 -0.8818  0.8244
  355SOL     H227265   3.610   1.325   6.958  0.3129 -0.8642  0.7577
  356SOL    OH227266   7.772   6.066   0.273 -0.2935 -0.4240 -0.4901
  356SOL     H127267   7.802   6.123   0.343 -0.3499  3.2744 -3.3278
  356SOL     H227268   7.697   6.020   0.310  0.1181  0.9082  2.1032
  357SOL    OH227269   1.020   7.712   1.063  0.1010  0.2250  0.0828
  357SOL     H127270   1.051   7.724   0.973  2.3942  2.3235  1.0923
  357SOL     H227271   0.989   7.798   1.090 -1.0455 -0.5060  1.1397
  358SOL    OH227272   4.573   1.422   7.210  0.3980  0.2765 -0.3418
  358SOL     H127273   4.545   1.506   7.247  0.3514  0.7407 -1.3943
  358SOL     H227274   4.494   1.385   7.172  0.3601 -0.3893  0.3755
  359SOL    OH227275   1.436   4.682   0.238  0.6136 -0.2249  0.2249
  359SOL     H127276   1.455   4.700   0.146 -0.6263 -1.8620 -0.3725
  359SOL     H227277   1.343   4.658   0.239  0.5873 -0.0740  1.9162
  360SOL    OH227278   6.805   2.994   1.303 -0.3247 -0.0407 -0.0099
  360SOL     H127279   6.763   2.910   1.321 -1.5307  0.3177 -1.1052
  360SOL     H227280   6.735   3.059   1.313  0.1914  0.6681 -0.8693
  361SOL    OH227281   3.058   2.186   1.630 -0.3415  0.0372 -0.2274
  361SOL     H127282   3.131   2.171   1.570  1.4792  1.7954  1.4522
  361SOL     H227283   3.022   2.271   1.604 -1.5446 -0.6273 -0.7754
  362SOL    OH227284   3.243   4.900   7.165 -0.8195  0.0462  0.1285
  362SOL     H127285   3.203   4.820   7.131  0.1271 -1.4235  2.3712
  362SOL     H227286   3.181   4.931   7.232 -0.5587  0.4720  0.1736
  363SOL    OH227287   5.735   4.953   6.539  0.4717  0.4180 -0.4320
  363SOL     H127288   5.799   4.926   6.473 -0.4084 -0.4950 -0.9269
  363SOL     H227289   5.697   4.871   6.570  0.8269  0.8448  1.1670
  364SOL    OH227290   7.577   4.112   8.225  0.2307 -0.5540  1.0160
  364SOL     H127291   7.662   4.156   8.214 -0.6090  0.5915 -1.2619
  364SOL     H227292   7.592   4.023   8.196  0.9214 -0.6655  1.6914
  365SOL    OH227293   4.538   7.223   7.145 -0.7746  0.9996 -0.3277
  365SOL     H127294   4.600   7.290   7.115  0.3193  0.5516  0.9054
  365SOL     H227295   4.522   7.169   7.067  0.8308  0.7761 -0.5205
  366SOL    OH227296   6.524   5.729   1.213 -0.3961  0.2423  0.0269
  366SOL     H127297   6.445   5.675   1.206  1.1117 -1.7320 -3.1452
  366SOL     H227298   6.581   5.679   1.272 -0.1715 -0.1191 -0.4923
  367SOL    OH227299   2.669   3.936   1.505 -0.5788 -0.3914  0.2038
  367SOL     H127300   2.711   3.904   1.425 -0.2166  0.1637  0.1672
  367SOL     H227301   2.603   3.870   1.526 -0.9175 -0.3644 -0.7542
  368SOL    OH227302   6.816   5.098   1.302 -0.1583 -0.1024 -0.2443
  368SOL     H127303   6.754   5.026   1.311 -0.0938 -0.2493 -1.0012
  368SOL     H227304   6.822   5.114   1.208  0.2346  0.5349 -0.1151
  369SOL    OH227305   6.503   1.532   1.434  0.4144 -0.3312 -0.2025
  369SOL     H127306   6.411   1.516   1.454 -0.4271  0.9863 -2.8356
  369SOL     H227307   6.519   1.482   1.354  1.9124 -0.2788  0.0438
  370SOL    OH227308   7.598   7.218   6.796  0.0466 -0.4763  0.0478
  370SOL     H127309   7.541   7.277   6.745  0.7916 -0.5964 -0.9237
  370SOL     H227310   7.680   7.267   6.806  0.1856 -0.7866  0.4406
  371SOL    OH227311   7.873   6.620   0.452  0.5367 -0.0171 -0.2908
  371SOL     H127312   7.964   6.609   0.481  0.3548 -1.0111 -0.0966
  371SOL     H227313   7.881   6.646   0.360  0.9800 -1.6599 -0.7303
  372SOL    OH227314   6.570   1.419   1.200  0.3056  0.6566 -0.1947
  372SOL     H127315   6.559   1.349   1.135 -1.9868  0.3734  0.4622
  372SOL     H227316   6.558   1.500   1.150  1.1188  0.5309 -0.6041
  373SOL    OH227317   4.905   1.426   7.450  0.3060  0.3649  0.6045
  373SOL     H127318   4.982   1.371   7.464  0.9694  0.8973 -0.9059
  373SOL     H227319   4.834   1.364   7.435  1.2202 -0.1115 -1.9666
  374SOL    OH227320   5.680   1.139   1.253 -0.4316  1.0104 -0.0686
  374SOL     H127321   5.686   1.200   1.327 -1.1058  1.0410 -0.0309
  374SOL     H227322   5.673   1.195   1.176 -0.8744  0.9887 -0.0492
  375SOL    OH227323   5.988   4.497   1.766  0.0166 -0.0740 -0.3347
  375SOL     H127324   6.005   4.450   1.684 -2.2479  2.3752 -2.3190
  375SOL     H227325   5.960   4.430   1.827 -0.4763 -1.6622 -2.2460
  376SOL    OH227326   6.301   1.989   7.418 -0.4181  0.1324  0.6687
  376SOL     H127327   6.277   1.898   7.435 -0.3743  0.0044  0.0498
  376SOL     H227328   6.387   1.984   7.378 -0.7190  0.4023 -0.0185
  377SOL    OH227329   6.257   1.057   0.966  0.3874 -0.2709 -0.4925
  377SOL     H127330   6.344   1.019   0.978  0.7839  0.4711 -0.9784
  377SOL     H227331   6.203   1.015   1.033  1.4199  0.2469  0.6656
  378SOL    OH227332   4.022   0.512   7.626  0.2229 -0.2783  0.0465
  378SOL     H127333   4.013   0.475   7.714 -1.7035  0.0745  0.0162
  378SOL     H227334   4.014   0.606   7.638 -1.0696 -0.2939 -0.6161
  379SOL    OH227335   6.826   5.967   7.693 -0.5095  0.0139 -0.5566
  379SOL     H127336   6.858   6.054   7.716 -0.2965 -0.2227  0.0258
  379SOL     H227337   6.762   5.984   7.623 -1.6582  0.7842  0.6621
  380SOL    OH227338   6.965   7.169   0.560  0.0238  0.2942  0.1674
  380SOL     H127339   6.965   7.103   0.490 -1.4121 -0.5921  0.9886
  380SOL     H227340   7.058   7.183   0.580  0.3350 -1.7542  0.2398
  381SOL    OH227341   7.390   5.772   1.094  0.4075 -0.3381  0.3216
  381SOL     H127342   7.340   5.692   1.079 -2.3573  1.1893  1.0164
  381SOL     H227343   7.470   5.743   1.137 -0.7279 -2.6985  0.9243
  382SOL    OH227344   2.763   1.020   1.242 -0.5231 -0.2157 -0.4275
  382SOL     H127345   2.838   1.066   1.281 -0.8058 -0.0051 -0.1318
  382SOL     H227346   2.729   1.081   1.177  0.2060 -0.7350 -1.3137
  383SOL    OH227347   2.806   5.671   5.374 -0.5315 -0.0980  0.0974
  383SOL     H127348   2.777   5.641   5.288 -0.7350 -2.1888  0.8774
  383SOL     H227349   2.731   5.718   5.410 -0.2126  1.4012 -1.1191
  384SOL    OH227350   1.139   4.551   6.573 -0.5892  0.4138 -0.8199
  384SOL     H127351   1.131   4.622   6.510 -0.6800  0.3599 -0.8705
  384SOL     H227352   1.223   4.565   6.615  1.3006 -1.7408 -3.6894
  385SOL    OH227353   0.712   3.040   1.480 -0.5021  0.1955 -0.5537
  385SOL     H127354   0.711   2.944   1.484  1.3346  0.2500  1.9029
  385SOL     H227355   0.761   3.060   1.400  0.3301 -0.9087 -0.3304
  386SOL    OH227356   6.543   7.144   6.052  0.0668 -0.4411  0.6469
  386SOL     H127357   6.587   7.126   5.969 -0.5680  0.7525  0.0373
  386SOL     H227358   6.567   7.071   6.109  0.9558 -0.9800 -0.4119
  387SOL    OH227359   5.963   1.606   7.766 -0.5682 -0.2135  0.3068
  387SOL     H127360   6.018   1.589   7.843 -0.6604  0.4357  0.5256
  387SOL     H227361   5.942   1.519   7.732  1.1115 -0.4542 -0.1570
  388SOL    OH227362   4.061   3.798   0.652  0.4101  0.1384 -0.8383
  388SOL     H127363   4.038   3.766   0.565 -1.2200  1.5826 -0.9904
  388SOL     H227364   4.072   3.893   0.640 -0.8080  0.4970  0.6727
  389SOL    OH227365   5.202   7.012   8.147 -0.3666  0.4313  0.1519
  389SOL     H127366   5.231   6.985   8.060 -1.3973 -0.4034  0.0582
  389SOL     H227367   5.154   7.094   8.132 -0.2541  0.4651 -0.0213
  390SOL    OH227368   4.977   4.677   1.741  0.2187 -0.4438  0.0539
  390SOL     H127369   5.066   4.708   1.727 -0.4173  0.8690 -1.1915
  390SOL     H227370   4.955   4.629   1.661  0.0292 -1.3271  0.6233
  391SOL    OH227371   0.301   5.224   7.430  0.5431  0.4655 -0.1395
  391SOL     H127372   0.376   5.187   7.477  0.4255  0.7707  0.2819
  391SOL     H227373   0.225   5.204   7.485 -0.0681 -2.3325 -1.8903
  392SOL    OH227374   1.316   2.947   1.003  0.2732  0.0297 -0.6331
  392SOL     H127375   1.280   3.031   1.031 -1.1344 -0.7564 -0.0096
  392SOL     H227376   1.253   2.882   1.035  2.4422 -1.4386  0.8614
  393SOL    OH227377   5.914   1.375   1.444  0.2456 -0.1048 -0.1957
  393SOL     H127378   5.999   1.337   1.463 -0.2717 -1.3111 -0.2620
  393SOL     H227379   5.926   1.469   1.459  2.2079  0.0604 -2.4515
  394SOL    OH227380   4.156   6.870   7.907  0.3848  0.0181 -0.0090
  394SOL     H127381   4.248   6.891   7.922  0.1974  2.2017 -1.6462
  394SOL     H227382   4.158   6.800   7.842  0.8988 -1.4653  1.5525
  395SOL    OH227383   1.535   3.260   0.979  0.0022  0.7196 -0.3680
  395SOL     H127384   1.572   3.348   0.981  0.5257  0.5918 -2.4834
  395SOL     H227385   1.605   3.206   0.942 -1.8017  0.2561 -3.3659
  396SOL    OH227386   6.796   4.730   6.936 -0.2231 -0.7134  0.2988
  396SOL     H127387   6.864   4.786   6.974  1.1501 -0.9227 -1.7894
  396SOL     H227388   6.817   4.642   6.967 -0.9332 -0.4520  1.5600
  397SOL    OH227389   0.074   1.540   7.627 -0.5264 -0.4066  0.6659
  397SOL     H127390   0.013   1.474   7.594 -0.9690  0.6891 -0.7417
  397SOL     H227391   0.149   1.536   7.567  0.3690 -1.0569  1.8002
  398SOL    OH227392   6.960   7.693   5.552  0.0325 -0.0045 -0.1416
  398SOL     H127393   6.941   7.635   5.478  0.8483  0.9841 -1.1466
  398SOL     H227394   7.034   7.651   5.597 -2.1510 -2.0001  1.7059
  399SOL    OH227395   2.236   3.428   0.778  0.7505 -0.2340  0.1120
  399SOL     H127396   2.174   3.432   0.705 -1.1188 -1.8046  1.5412
  399SOL     H227397   2.248   3.519   0.804  0.9372  0.2896 -1.7128
  400SOL    OH227398   3.756   3.351   7.104 -0.1645 -0.2817  0.0817
  400SOL     H127399   3.728   3.423   7.160 -1.0303  0.0188 -0.7211
  400SOL     H227400   3.679   3.329   7.053  0.4363 -0.9674 -0.5395
  401SOL    OH227401   4.873   0.877   1.882  0.3258  0.2356  0.8009
  401SOL     H127402   4.879   0.896   1.788 -2.2658 -1.8574  0.1616
  401SOL     H227403   4.796   0.925   1.911 -0.3206 -1.1095  1.3285
  402SOL    OH227404   1.811   6.863   1.140  0.6132 -0.4693  0.0512
  402SOL     H127405   1.835   6.945   1.184 -0.0163 -0.4564  0.3818
  402SOL     H227406   1.894   6.817   1.129  0.9346  0.0758  0.1406
  403SOL    OH227407   5.464   5.151   7.625  0.5041  0.2020  0.4152
  403SOL     H127408   5.542   5.195   7.658  0.6972 -1.4165  2.2520
  403SOL     H227409   5.497   5.073   7.580 -0.0212 -0.2965  0.8763
  404SOL    OH227410   6.688   5.894   7.455  0.0063  0.7403  0.9363
  404SOL     H127411   6.705   5.825   7.519 -0.1032  0.1997  0.3938
  404SOL     H227412   6.598   5.880   7.427 -0.0375  1.1427  0.8681
  405SOL    OH227413   3.585   2.921   5.915 -0.3625 -0.2731 -0.2439
  405SOL     H127414   3.526   2.973   5.971 -1.1900  0.8042 -2.0902
  405SOL     H227415   3.594   2.972   5.835  1.1727 -1.5966 -0.9472
  406SOL    OH227416   0.731   2.443   0.504 -0.4321  0.3185 -0.5843
  406SOL     H127417   0.725   2.411   0.594  0.4771 -0.1333 -0.6781
  406SOL     H227418   0.679   2.380   0.453  1.2815 -1.0092 -0.7547
  407SOL    OH227419   1.969   1.780   1.305  0.2127 -0.1795  0.0054
  407SOL     H127420   1.890   1.741   1.268 -0.0820  1.7690 -1.4692
  407SOL     H227421   2.022   1.705   1.334 -1.2253 -1.5670 -0.9026
  408SOL    OH227422   6.133   7.242   1.258  0.1811 -0.5769  0.2542
  408SOL     H127423   6.196   7.249   1.329  0.9132 -0.2307 -0.4201
  408SOL     H227424   6.175   7.286   1.184 -1.0831  0.1378 -0.0496
  409SOL    OH227425   6.999   7.497   1.474 -0.3669  0.8212 -0.3985
  409SOL     H127426   7.029   7.442   1.546 -0.5385  0.5222 -0.5492
  409SOL     H227427   6.982   7.582   1.514  0.3846  0.9072 -0.2607
  410SOL    OH227428   5.360   4.609   6.572 -0.2691 -0.4123  0.4851
  410SOL     H127429   5.363   4.513   6.566  0.4457 -0.4131  0.8565
  410SOL     H227430   5.317   4.626   6.656  0.8660 -0.4094  1.0671
  411SOL    OH227431   5.370   3.830   1.915  0.3027  0.0058 -0.0580
  411SOL     H127432   5.390   3.752   1.967  1.1308  0.3907  0.2164
  411SOL     H227433   5.448   3.844   1.862 -0.2506  0.0525 -0.8644
  412SOL    OH227434   1.000   6.102   0.254  0.5951  0.5666 -0.3913
  412SOL     H127435   1.008   6.008   0.236 -2.1922 -0.0289  1.2470
  412SOL     H227436   1.079   6.123   0.303  0.1885 -1.4338  1.1929
  413SOL    OH227437   2.285   6.143   2.063 -0.0981  0.3187 -1.0573
  413SOL     H127438   2.303   6.119   2.153  0.3852  0.2427 -1.1722
  413SOL     H227439   2.208   6.200   2.068  2.9322  4.6140 -0.0209
  414SOL    OH227440   1.657   6.778   6.824 -0.0179  0.2521 -0.1797
  414SOL     H127441   1.658   6.739   6.737  1.4388  1.5538 -0.7723
  414SOL     H227442   1.686   6.868   6.811 -0.6715  0.7392  1.5300
  415SOL    OH227443   1.503   7.296   1.913 -0.1284  0.4904  0.3721
  415SOL     H127444   1.473   7.338   1.994 -1.1171  0.9649 -0.2312
  415SOL     H227445   1.532   7.209   1.941 -1.6998  0.1551  1.0406
  416SOL    OH227446   2.776   3.277   7.716 -0.6254 -0.2837 -0.0684
  416SOL     H127447   2.691   3.320   7.714 -0.1342  0.6325 -1.3625
  416SOL     H227448   2.757   3.185   7.696 -1.2668 -0.0179 -0.6974
  417SOL    OH227449   5.986   0.869   1.832 -0.0879 -0.0620  0.0769
  417SOL     H127450   5.908   0.875   1.886 -1.6290  0.6695 -2.1522
  417SOL     H227451   6.004   0.775   1.826 -0.2258 -0.1757  1.3654
  418SOL    OH227452   1.882   2.149   0.794  0.1382 -0.1649 -0.8136
  418SOL     H127453   1.902   2.239   0.821  0.0599  0.1825 -1.8842
  418SOL     H227454   1.816   2.159   0.726  0.3860 -1.0246 -1.1870
  419SOL    OH227455   1.004   7.108   1.764  0.0585  0.3929 -0.0823
  419SOL     H127456   1.035   7.076   1.679 -0.8679 -0.5279 -0.0711
  419SOL     H227457   1.034   7.199   1.767 -0.0862  0.4969 -1.4899
  420SOL    OH227458   1.361   0.301   6.000  0.3989  0.1023 -0.0977
  420SOL     H127459   1.426   0.254   5.947 -0.8428 -2.6920  0.7521
  420SOL     H227460   1.341   0.241   6.072 -1.9656  1.5484  0.5026
  421SOL    OH227461   7.828   2.090   6.579  0.1229  0.6370 -0.0238
  421SOL     H127462   7.883   2.037   6.636  0.2440  1.1360  0.3153
  421SOL     H227463   7.747   2.102   6.628  0.5363  1.7683  0.3895
  422SOL    OH227464  -0.015   4.074   7.880 -0.2608 -0.2107  0.2468
  422SOL     H127465   0.038   4.149   7.853  0.1386 -0.7311 -0.4381
  422SOL     H227466   0.008   4.060   7.972 -2.3886  2.2124  1.2095
  423SOL    OH227467   3.130   3.168   0.320  0.0373 -0.3545 -0.3985
  423SOL     H127468   3.148   3.175   0.226  1.4818 -0.0179 -0.1122
  423SOL     H227469   3.189   3.098   0.350 -2.3018 -2.2941 -0.2036
  424SOL    OH227470   3.613   1.726   1.510  0.2352 -0.0270  0.1757
  424SOL     H127471   3.607   1.638   1.548 -2.5166  1.2194  2.8904
  424SOL     H227472   3.561   1.721   1.429  1.3905 -1.2680 -0.5034
  425SOL    OH227473   0.283   1.486   0.615 -0.0533 -0.0176  0.1539
  425SOL     H127474   0.329   1.568   0.635 -1.1531  0.6295  0.0779
  425SOL     H227475   0.304   1.428   0.687 -0.8318  0.9982  1.2204
  426SOL    OH227476   7.954   3.888   0.303 -0.3246  0.6834  0.0217
  426SOL     H127477   7.891   3.849   0.242 -0.3012  0.4584  0.1417
  426SOL     H227478   7.904   3.905   0.383 -0.0544 -0.2160  0.3886
  427SOL    OH227479   5.342   7.437   0.231 -0.0301 -0.1071 -0.4104
  427SOL     H127480   5.425   7.401   0.201  0.3571 -0.0952  0.6296
  427SOL     H227481   5.292   7.360   0.258 -0.2207 -0.0825 -0.6901
  428SOL    OH227482   4.101   1.671   6.996 -0.1333 -0.1261  0.2777
  428SOL     H127483   4.077   1.600   7.055  0.2061 -0.4641  0.0090
  428SOL     H227484   4.184   1.643   6.957 -0.4522  0.0021 -0.5068
  429SOL    OH227485   7.899   6.540   7.309  0.1740 -0.1533  0.2505
  429SOL     H127486   7.886   6.530   7.215  0.1469 -0.3076  0.2706
  429SOL     H227487   7.929   6.454   7.339  3.1546  0.6998 -0.1210
  430SOL    OH227488   1.339   4.989   6.953  0.8108  0.7127 -0.0925
  430SOL     H127489   1.387   5.014   7.031  2.2557  1.8425 -1.3097
  430SOL     H227490   1.405   4.955   6.893 -0.6201 -2.7504  0.1387
  431SOL    OH227491   1.793   4.983   7.043 -0.6120  0.0994  0.0981
  431SOL     H127492   1.799   5.043   7.117 -2.7666  0.6257 -0.1114
  431SOL     H227493   1.789   5.041   6.966  0.0693 -0.3975 -0.3181
  432SOL    OH227494   3.399   0.919   1.184  0.0602 -0.3485 -0.0157
  432SOL     H127495   3.427   0.883   1.099 -4.9490 -0.7045 -1.6809
  432SOL     H227496   3.358   0.845   1.228 -2.8003  1.2357  0.0960
  433SOL    OH227497   4.355   3.497   0.957 -0.4194  0.2476 -0.2281
  433SOL     H127498   4.366   3.533   1.045 -0.3053  1.8748 -0.8905
  433SOL     H227499   4.432   3.442   0.944 -0.0007  0.6826  0.3675
  434SOL    OH227500   0.535   2.438   6.799  0.3170 -0.6196 -0.3728
  434SOL     H127501   0.558   2.444   6.706  0.6275 -2.0798 -0.3875
  434SOL     H227502   0.605   2.486   6.844 -0.1802  0.6529 -0.9318
  435SOL    OH227503   7.561   4.367   1.069 -0.4804 -0.6374  0.0882
  435SOL     H127504   7.530   4.312   1.141 -1.5055  0.4429  0.5045
  435SOL     H227505   7.482   4.411   1.038  0.0650 -0.6238 -1.2905
  436SOL    OH227506   2.460   3.370   7.129 -0.1786 -0.1491  0.0209
  436SOL     H127507   2.536   3.374   7.070 -0.8024 -2.5887 -0.9913
  436SOL     H227508   2.491   3.321   7.204 -0.4103 -0.0806  0.1597
  437SOL    OH227509   3.368   1.750   2.084 -0.0682 -0.0853 -0.1452
  437SOL     H127510   3.439   1.811   2.106  1.4077 -1.8891  0.1729
  437SOL     H227511   3.338   1.715   2.168 -3.3339  2.7456  0.0099
  438SOL    OH227512   6.599   7.273   1.270  0.0907 -0.6337 -0.5702
  438SOL     H127513   6.541   7.274   1.194 -0.6506  1.3054 -0.0202
  438SOL     H227514   6.683   7.306   1.237  0.1408 -0.9843 -0.8004
  439SOL    OH227515   0.921   4.796   8.078  0.2027 -0.3943  0.6253
  439SOL     H127516   0.842   4.846   8.054 -1.0851 -2.9264 -0.6416
  439SOL     H227517   0.992   4.840   8.032 -1.2632 -1.1575 -2.4652
  440SOL    OH227518   6.276   5.543   7.879  0.3641  0.0346  0.3186
  440SOL     H127519   6.310   5.459   7.847  2.6468  0.4610  1.5434
  440SOL     H227520   6.182   5.529   7.888  0.6856 -2.3285  0.2860
  441SOL    OH227521   0.095   1.439   0.173 -0.1697  0.5382  0.1189
  441SOL     H127522   0.135   1.414   0.256  0.4678  1.1749  0.0134
  441SOL     H227523   0.110   1.533   0.166  1.7884  0.1342 -1.7508
  442SOL    OH227524   2.757   3.111   0.347 -0.6106  0.3196 -0.0255
  442SOL     H127525   2.832   3.153   0.390 -2.3404  0.1411  3.3518
  442SOL     H227526   2.742   3.163   0.268  1.1862  2.2140  0.8219
  443SOL    OH227527   7.308   3.108   2.219  0.1233  0.1414  0.0766
  443SOL     H127528   7.270   3.122   2.132 -1.3053  1.2575  0.8488
  443SOL     H227529   7.252   3.042   2.259 -0.4482  1.0833  0.8637
  444SOL    OH227530   6.929   2.268   7.333 -0.2717 -0.2819 -0.1736
  444SOL     H127531   6.964   2.264   7.244  1.3759  0.6920  0.4092
  444SOL     H227532   6.975   2.342   7.373  1.0367 -2.4083  2.3400
  445SOL    OH227533   0.122   7.561   5.684  0.0335  0.0776  0.8197
  445SOL     H127534   0.103   7.468   5.694 -0.0033 -0.0074 -0.0509
  445SOL     H227535   0.189   7.579   5.750 -0.3301 -0.4510  1.3350
  446SOL    OH227536   4.450   1.366   5.775 -0.1778  0.4445  0.0632
  446SOL     H127537   4.470   1.441   5.831 -0.7536  1.4381 -1.0409
  446SOL     H227538   4.535   1.323   5.761  0.7145  2.8026 -1.9991
  447SOL    OH227539   4.616   5.713   0.361 -0.1387  0.0590  0.3595
  447SOL     H127540   4.569   5.738   0.282 -1.0208 -2.0946  0.1895
  447SOL     H227541   4.654   5.628   0.341 -0.3196 -0.4869  2.2244
  448SOL    OH227542   4.815   5.214   7.378  0.1330  0.3327 -0.0549
  448SOL     H127543   4.837   5.155   7.306 -1.7794 -0.4429 -0.0549
  448SOL     H227544   4.889   5.209   7.438  0.7431 -0.7707 -0.8905
  449SOL    OH227545   7.886   7.566   7.262  0.2568  0.1302 -0.2236
  449SOL     H127546   7.916   7.591   7.349  1.3110 -0.1063 -0.5100
  449SOL     H227547   7.846   7.480   7.274 -0.7787  0.6749  0.2539
  450SOL    OH227548   1.700   5.936   8.131  0.1883  0.2016 -0.6907
  450SOL     H127549   1.745   6.011   8.092  2.2459 -1.3330 -1.3612
  450SOL     H227550   1.630   5.916   8.069  1.2125  0.0164 -1.8216
  451SOL    OH227551   2.054   1.611   7.109  0.2835  0.0477  0.2107
  451SOL     H127552   1.966   1.572   7.112 -0.1254  0.8696 -0.9321
  451SOL     H227553   2.111   1.543   7.145 -0.9010 -0.2303  1.6275
  452SOL    OH227554   3.024   0.403   0.779  0.0071  0.2596  0.1466
  452SOL     H127555   3.076   0.345   0.833  0.0795 -0.2470 -0.4677
  452SOL     H227556   3.074   0.414   0.699  0.5837  2.1536  0.7290
  453SOL    OH227557   0.911   4.936   0.742  0.3038 -0.2031 -0.7108
  453SOL     H127558   0.952   4.883   0.674 -0.9165 -2.1331  0.0144
  453SOL     H227559   0.983   4.964   0.798  0.9502 -1.2064 -1.0340
  454SOL    OH227560   0.504   7.005   5.964  0.4650  0.1870  0.0450
  454SOL     H127561   0.419   7.050   5.967  0.5649  0.4150 -0.4538
  454SOL     H227562   0.553   7.043   6.036  0.0050 -0.2323  0.5882
  455SOL    OH227563   2.198   5.918   1.084 -0.0089 -0.4380  0.0336
  455SOL     H127564   2.248   5.879   1.012  1.0136 -0.4357  0.7229
  455SOL     H227565   2.178   5.845   1.143 -1.2185 -0.5136 -0.4596
  456SOL    OH227566   0.622   0.644   6.381 -0.4217  0.5848  0.4324
  456SOL     H127567   0.547   0.662   6.324  0.0139 -0.3609 -0.4607
  456SOL     H227568   0.697   0.642   6.322 -0.0463 -1.0220  0.9350
  457SOL    OH227569   1.055   5.584   6.114  0.4948 -0.3139  0.2111
  457SOL     H127570   1.110   5.590   6.192  1.1503  0.4824 -0.2959
  457SOL     H227571   1.106   5.630   6.046 -1.5728  1.9920  0.1527
  458SOL    OH227572   1.172   5.920   2.092  0.2623  0.4114  0.3739
  458SOL     H127573   1.213   6.004   2.112  1.3253  0.6578 -2.5645
  458SOL     H227574   1.244   5.857   2.097 -0.1151 -0.0006  0.5928
  459SOL    OH227575   6.831   1.923   5.776 -0.0500  0.4372  0.1362
  459SOL     H127576   6.830   1.860   5.704 -1.8633  0.2321  0.3148
  459SOL     H227577   6.868   1.874   5.850  1.0724  0.4111 -0.4309
  460SOL    OH227578   6.517   4.061   7.159  0.3728 -0.6393  0.1747
  460SOL     H127579   6.423   4.055   7.173  0.1421 -1.0313 -1.4898
  460SOL     H227580   6.552   3.982   7.199 -0.3210 -1.9597 -1.7931
  461SOL    OH227581   1.318   6.922   1.306  0.2153 -0.3835 -0.3066
  461SOL     H127582   1.395   6.867   1.291 -0.1400 -1.0837  0.3971
  461SOL     H227583   1.294   6.905   1.397 -0.9486 -0.3867 -0.6073
  462SOL    OH227584   1.580   0.338   6.370  0.2791 -0.0159 -0.0750
  462SOL     H127585   1.489   0.363   6.388  0.8058  1.8918  0.0176
  462SOL     H227586   1.589   0.252   6.411 -0.9118  0.6651  1.7083
  463SOL    OH227587   3.034   3.112   7.400  0.1898 -0.2688 -0.4724
  463SOL     H127588   3.125   3.123   7.372 -0.3989  1.3567 -1.9210
  463SOL     H227589   3.016   3.190   7.453 -1.3031  1.1629 -2.9748
  464SOL    OH227590   0.284   4.877   7.394 -0.0651  0.0264  0.1136
  464SOL     H127591   0.235   4.931   7.332 -3.1873 -2.0867  0.5841
  464SOL     H227592   0.287   4.790   7.352  1.0735 -0.5017  1.2664
  465SOL    OH227593   6.636   2.447   8.082 -0.1139 -0.2193  0.1969
  465SOL     H127594   6.543   2.459   8.103 -0.1905 -0.4404 -0.0187
  465SOL     H227595   6.644   2.476   7.991  0.8982  4.2323  1.5413
  466SOL    OH227596   5.726   6.637   7.237 -0.0512 -0.5434 -0.7473
  466SOL     H127597   5.732   6.546   7.207 -1.2229 -1.3366  1.3432
  466SOL     H227598   5.642   6.642   7.282  0.9959  0.9978  1.0851
  467SOL    OH227599   0.871   1.874   0.838  0.0149 -0.4249  0.3460
  467SOL     H127600   0.872   1.788   0.796  2.1241  0.0843 -0.7330
  467SOL     H227601   0.779   1.889   0.861 -1.0449 -1.2334 -3.0711
  468SOL    OH227602   7.058   1.088   6.272 -0.4853 -0.3907 -0.0595
  468SOL     H127603   7.130   1.028   6.252  0.8045  1.5003 -1.2543
  468SOL     H227604   7.100   1.161   6.318 -2.2345 -1.0067  2.5926
  469SOL    OH227605   1.613   7.663   0.904  0.5137  0.3660 -0.0437
  469SOL     H127606   1.605   7.749   0.945  1.0730 -0.1707  1.2178
  469SOL     H227607   1.671   7.614   0.962 -0.3339 -1.0874 -0.4004
  470SOL    OH227608   5.633   7.059   1.205  0.0028  0.5513  0.6332
  470SOL     H127609   5.616   7.151   1.225 -2.0640  0.2709  0.3267
  470SOL     H227610   5.696   7.031   1.272 -0.1669  1.9063  1.3785
  471SOL    OH227611   0.614   6.271   1.255  0.3611  0.2662 -0.0155
  471SOL     H127612   0.619   6.284   1.350 -0.0483  0.1619  0.0222
  471SOL     H227613   0.669   6.195   1.238 -0.5099 -0.4498  0.2992
  472SOL    OH227614   6.091   5.978   7.166 -0.3024  0.1517 -0.1693
  472SOL     H127615   6.049   5.962   7.082 -0.4215  0.2698 -0.1320
  472SOL     H227616   6.177   6.014   7.144 -1.1578  2.2249 -0.2138
  473SOL    OH227617   4.431   5.816   2.006  0.0638 -0.0161 -0.1566
  473SOL     H127618   4.458   5.772   1.925 -1.0214 -1.8705  0.4475
  473SOL     H227619   4.338   5.795   2.015 -0.2866  1.7882  0.5802
  474SOL    OH227620   1.721   0.057   7.082  0.0424 -0.0570 -0.6212
  474SOL     H127621   1.735   0.033   7.173 -0.0592 -0.6425 -0.7576
  474SOL     H227622   1.639   0.105   7.082 -0.2831 -0.6067 -0.4926
  475SOL    OH227623   6.246   4.117   7.390  0.2673 -0.7542 -0.3419
  475SOL     H127624   6.238   4.037   7.440  1.3705 -1.0611 -0.6397
  475SOL     H227625   6.282   4.181   7.451 -1.9040 -0.0991  0.2754
  476SOL    OH227626   1.573   4.156   7.004 -0.2209 -0.2872  0.0119
  476SOL     H127627   1.584   4.193   6.916  0.3519  0.2746  0.3158
  476SOL     H227628   1.523   4.076   6.990  0.8081 -0.7830 -0.9619
  477SOL    OH227629   0.784   4.771   1.416  0.2183  0.1559  0.3041
  477SOL     H127630   0.786   4.770   1.320 -0.3625  0.2009  0.2932
  477SOL     H227631   0.826   4.689   1.441 -0.8032 -0.4678 -0.0066
  478SOL    OH227632   6.417   4.228   3.113 -0.3879  0.1410  0.2602
  478SOL     H127633   6.503   4.244   3.154  0.4303 -0.0932 -1.3464
  478SOL     H227634   6.437   4.196   3.026 -2.1306  1.0562 -0.5060
  479SOL    OH227635   4.581   7.534   1.536 -0.1915 -0.0128 -0.1700
  479SOL     H127636   4.568   7.440   1.550  1.5983 -0.3871 -0.9197
  479SOL     H227637   4.674   7.548   1.551 -0.2343  1.4616 -1.1833
  480SOL    OH227638   0.523   6.511   1.142 -0.1325 -0.3449 -0.3849
  480SOL     H127639   0.543   6.421   1.166  1.0012 -0.3331 -1.2109
  480SOL     H227640   0.454   6.538   1.202 -0.3588 -1.7062 -0.0216
  481SOL    OH227641   7.161   4.211   7.720  0.2522 -0.2661 -0.0977
  481SOL     H127642   7.180   4.301   7.746  1.1793 -1.0419  2.0565
  481SOL     H227643   7.065   4.204   7.727  0.2232  0.4244  0.2002
  482SOL    OH227644   7.949   1.138   0.765  0.0601 -0.1912  0.0021
  482SOL     H127645   7.892   1.094   0.828  1.4204  1.8649  2.7926
  482SOL     H227646   7.919   1.229   0.764  1.9263  0.4493 -0.1023
  483SOL    OH227647   0.163   3.009   6.367  0.7618 -0.1447 -0.0442
  483SOL     H127648   0.071   3.028   6.348  0.5630 -0.7403  0.3165
  483SOL     H227649   0.163   2.978   6.458  1.1012 -1.6951 -0.5560
  484SOL    OH227650   2.502   7.168   7.371  0.0156 -0.1571  0.3123
  484SOL     H127651   2.467   7.201   7.287 -0.3323 -1.2139  0.0308
  484SOL     H227652   2.517   7.247   7.423  0.8383  0.5546 -0.9829
  485SOL    OH227653   0.311   3.539   6.525  0.7465  0.2618  0.5904
  485SOL     H127654   0.255   3.533   6.449  0.6328 -2.3173  0.8417
  485SOL     H227655   0.272   3.608   6.579 -1.0866 -0.2283 -0.1014
  486SOL    OH227656   2.317   5.481   7.460 -0.5235 -0.3704  0.2845
  486SOL     H127657   2.357   5.544   7.519  2.4169 -2.2260  0.3878
  486SOL     H227658   2.328   5.396   7.504 -1.9333 -1.3065 -1.0952
  487SOL    OH227659   6.427   0.251   0.129 -1.1268  0.0874 -0.2494
  487SOL     H127660   6.489   0.184   0.158 -0.5344  0.1060 -1.4231
  487SOL     H227661   6.475   0.300   0.062 -0.9287  2.8448  1.8658
  488SOL    OH227662   0.047   0.573   6.028 -0.1976 -0.4384  0.1282
  488SOL     H127663   0.125   0.605   6.073  0.1231 -1.4368  0.2956
  488SOL     H227664   0.005   0.652   5.993  1.8485 -0.0514 -1.5508
  489SOL    OH227665   0.280   7.315   0.856  0.0434  0.1461  0.4896
  489SOL     H127666   0.217   7.243   0.856  0.3887 -0.1672  1.5155
  489SOL     H227667   0.359   7.278   0.816 -0.1936  0.3283 -0.1467
  490SOL    OH227668   6.182   7.414   2.588  0.0575 -0.4683  0.0647
  490SOL     H127669   6.098   7.435   2.629 -0.1066 -3.0347  1.1852
  490SOL     H227670   6.161   7.344   2.525  1.0845  0.0710 -0.8914
  491SOL    OH227671   1.148   4.513   2.949 -0.1623 -0.7685 -0.0375
  491SOL     H127672   1.164   4.600   2.986  0.7835 -0.8826 -0.1821
  491SOL     H227673   1.066   4.523   2.901  0.4063  0.2775 -0.8120
  492SOL    OH227674   4.569   4.499   2.672 -0.5788 -0.0658  0.1176
  492SOL     H127675   4.568   4.436   2.744  0.5665 -1.0228 -0.6939
  492SOL     H227676   4.642   4.557   2.691 -1.2192  0.6126  0.5159
  493SOL    OH227677   4.672   4.182   1.631  0.0525 -0.5244  0.8974
  493SOL     H127678   4.760   4.194   1.666  0.6315  2.0258 -1.2821
  493SOL     H227679   4.635   4.270   1.627 -1.9998 -1.3761  0.2139
  494SOL    OH227680   2.669   2.324   0.888 -0.2756 -0.0624  0.5470
  494SOL     H127681   2.639   2.235   0.867  0.1658  0.2130 -1.2542
  494SOL     H227682   2.601   2.381   0.854  0.1411  0.3675  0.4403
  495SOL    OH227683   7.758   2.204   0.982 -0.2685 -0.3631 -0.1215
  495SOL     H127684   7.754   2.109   0.988 -1.3604 -0.3542 -0.5570
  495SOL     H227685   7.667   2.232   0.994  0.1187  0.6501  0.4772
  496SOL    OH227686   0.052   2.199   7.535  0.0543  0.3295  0.5938
  496SOL     H127687   0.039   2.267   7.470  0.0935  0.8768  1.1531
  496SOL     H227688   0.147   2.193   7.545  0.3589 -3.4200 -3.2318
  497SOL    OH227689   7.672   7.229   7.079  0.1369  0.3676  0.0300
  497SOL     H127690   7.632   7.160   7.133  2.5695 -2.3371 -1.4338
  497SOL     H227691   7.635   7.215   6.992  0.0773  1.4236 -0.1137
  498SOL    OH227692   2.942   5.223   2.065 -0.2137 -0.4033  0.1252
  498SOL     H127693   2.995   5.170   2.005 -0.2524 -0.5118  0.1866
  498SOL     H227694   3.006   5.266   2.121 -0.1988 -0.6950  0.3327
  499SOL    OH227695   5.576   2.224   1.972 -0.0113  0.3779  0.0621
  499SOL     H127696   5.556   2.181   2.055  0.2872  1.0873  0.4972
  499SOL     H227697   5.508   2.290   1.962  0.3107  0.7012  0.0288
  500SOL    OH227698   7.525   6.171   6.166 -0.0794 -0.3324  0.0039
  500SOL     H127699   7.607   6.123   6.152 -0.8022 -1.1821 -1.3786
  500SOL     H227700   7.512   6.169   6.261  1.6415  0.0707  0.2763
  501SOL    OH227701   6.781   6.330   6.273 -0.3604  0.0121  0.2372
  501SOL     H127702   6.696   6.309   6.313 -0.8297  1.9653  0.3409
  501SOL     H227703   6.786   6.425   6.279  1.6985 -0.0701 -0.1057
  502SOL    OH227704   1.817   7.104   0.557  0.3295 -0.0906 -0.0797
  502SOL     H127705   1.747   7.157   0.594  2.0123  1.8361  0.3963
  502SOL     H227706   1.844   7.047   0.629  0.5894  0.5496  0.3323
  503SOL    OH227707   7.716   5.924   1.865 -0.0139  0.2231 -0.7146
  503SOL     H127708   7.629   5.937   1.829  0.2746  0.8181 -1.2129
  503SOL     H227709   7.715   5.836   1.901 -0.8551  0.2723 -0.6181
  504SOL    OH227710   3.707   6.613   0.649 -0.1614  0.3356 -0.3231
  504SOL     H127711   3.674   6.637   0.562 -1.3732  0.9883  0.3032
  504SOL     H227712   3.787   6.665   0.659  0.3565 -0.2504 -1.3161
  505SOL    OH227713   7.726   6.459   6.712  0.0708  0.0371 -0.3434
  505SOL     H127714   7.702   6.547   6.741 -0.7946 -0.1697 -0.4175
  505SOL     H227715   7.684   6.400   6.774 -0.6193 -0.3644 -1.1777
  506SOL    OH227716   4.422   0.265   1.035  0.2697  0.2613 -0.2741
  506SOL     H127717   4.500   0.223   0.998  0.6505  0.9274 -0.2246
  506SOL     H227718   4.406   0.218   1.117  1.2256  0.7905  0.2253
  507SOL    OH227719   5.285   3.372   0.411  0.4448  0.1192  0.2285
  507SOL     H127720   5.354   3.369   0.477 -0.6428 -0.4840  1.3680
  507SOL     H227721   5.267   3.465   0.399  0.6731  0.2359  0.7798
  508SOL    OH227722   6.337   7.791   1.532 -0.0947  0.5281 -0.1871
  508SOL     H127723   6.254   7.838   1.537 -0.5450 -0.4515  3.6454
  508SOL     H227724   6.313   7.704   1.499 -0.7445  0.0362  1.5183
  509SOL    OH227725   0.169   0.183   1.114  0.6550  0.3035 -0.1193
  509SOL     H127726   0.126   0.242   1.176 -1.1620 -0.4773 -0.5882
  509SOL     H227727   0.156   0.224   1.028 -0.9505 -0.9217 -0.4920
  510SOL    OH227728   6.602   6.967   1.479  0.0834 -0.1770  0.5359
  510SOL     H127729   6.610   6.899   1.413  1.0752 -0.6073  1.0823
  510SOL     H227730   6.692   6.988   1.504 -0.1214  2.3583 -0.6468
  511SOL    OH227731   4.814   1.332   7.782  0.8457  0.3875  0.0664
  511SOL     H127732   4.888   1.273   7.770  0.7856  0.2401  0.4332
  511SOL     H227733   4.737   1.280   7.759  0.8078  0.3807  0.2116
  512SOL    OH227734   4.525   4.514   6.825  0.0054 -0.0238  0.4978
  512SOL     H127735   4.443   4.494   6.871 -0.8254  0.5288 -0.7122
  512SOL     H227736   4.527   4.452   6.752  2.3771 -2.3535  2.4145
  513SOL    OH227737   4.974   2.911   0.578  0.0362 -0.1571 -0.5579
  513SOL     H127738   4.893   2.868   0.548 -0.2397  1.0568 -1.6109
  513SOL     H227739   4.980   2.990   0.524  0.4192  1.2435  1.4874
  514SOL    OH227740   1.722   5.643   6.485  0.1959 -0.1498  0.1437
  514SOL     H127741   1.759   5.578   6.545  2.0226  0.8770  0.1916
  514SOL     H227742   1.752   5.727   6.520 -1.7304  0.6833 -0.1867
  515SOL    OH227743   3.918   4.134   1.116 -0.3500 -0.4064  0.0066
  515SOL     H127744   3.842   4.160   1.168  0.4812  1.1510  0.4534
  515SOL     H227745   3.881   4.108   1.032 -1.1406  3.2393 -0.8304
  516SOL    OH227746   2.557   6.756   1.427  0.1748  0.2184  0.0708
  516SOL     H127747   2.567   6.677   1.373 -0.4720  0.0291  0.2131
  516SOL     H227748   2.528   6.823   1.365 -1.2259 -0.1666  0.2703
  517SOL    OH227749   3.840   2.141   7.499  0.4753 -0.0280 -0.0412
  517SOL     H127750   3.925   2.103   7.477  0.8802  0.3144  0.9144
  517SOL     H227751   3.820   2.106   7.586  0.2515  0.9115  0.2919
  518SOL    OH227752   6.302   2.698   6.864  0.5239 -0.0500  0.0057
  518SOL     H127753   6.306   2.622   6.922  2.5208 -0.3459 -0.4783
  518SOL     H227754   6.384   2.694   6.814  0.7572  2.5331  0.1384
  519SOL    OH227755   5.671   5.145   1.460 -0.0898 -0.0774  0.2047
  519SOL     H127756   5.681   5.216   1.524 -1.0807  0.5095 -0.2903
  519SOL     H227757   5.595   5.095   1.490 -0.7842  0.4113 -0.7016
  520SOL    OH227758   2.422   6.198   7.388  0.5691  0.5341 -0.3052
  520SOL     H127759   2.374   6.281   7.383 -0.6302 -0.1511 -0.5359
  520SOL     H227760   2.474   6.196   7.307  0.7293  1.1270 -0.2240
  521SOL    OH227761   1.919   4.171   7.950 -0.0466  0.0931 -0.0294
  521SOL     H127762   1.937   4.261   7.976 -0.7068  0.5794 -1.2116
  521SOL     H227763   1.900   4.177   7.856 -1.6315 -1.0658  0.2134
  522SOL    OH227764   2.993   3.501   8.154  0.0022  0.1207  0.2140
  522SOL     H127765   2.966   3.545   8.073 -1.9702  1.3257  1.4947
  522SOL     H227766   2.940   3.541   8.222  1.3512 -1.1726  2.0748
  523SOL    OH227767   6.328   6.276   6.674  0.0110  0.5220  0.2094
  523SOL     H127768   6.398   6.260   6.738  1.7398  3.6156 -0.7925
  523SOL     H227769   6.270   6.340   6.716 -0.0749  0.8745 -0.4259
  524SOL    OH227770   5.509   1.758   1.275  0.6557  0.2894 -0.1764
  524SOL     H127771   5.543   1.714   1.352  0.6937 -1.7970 -1.3410
  524SOL     H227772   5.463   1.834   1.309  2.8657  0.8412  1.7156
  525SOL    OH227773   0.574   4.263   0.054  0.8094 -0.4376  0.0024
  525SOL     H127774   0.497   4.267   0.111  0.6334  1.7977 -0.3371
  525SOL     H227775   0.641   4.314   0.100  1.7699 -1.5147 -0.1859
  526SOL    OH227776   5.350   0.717   1.989 -0.3396 -0.0461  0.4053
  526SOL     H127777   5.435   0.745   1.957 -0.6013  0.4009  0.0859
  526SOL     H227778   5.339   0.765   2.071  0.1590 -0.8842  0.9576
  527SOL    OH227779   4.360   5.940   0.410  0.4582  0.1775  0.2108
  527SOL     H127780   4.421   5.995   0.360 -0.4886  0.7011 -0.3823
  527SOL     H227781   4.357   5.858   0.361  0.0571  0.4473 -0.2238
  528SOL    OH227782   4.317   4.814   2.135 -0.2507 -0.0707  0.5190
  528SOL     H127783   4.263   4.880   2.092  1.6559  1.0323 -0.2571
  528SOL     H227784   4.333   4.848   2.223  2.4228  1.5917 -0.5228
  529SOL    OH227785   5.490   7.019   7.402  0.3690  0.9496  0.4362
  529SOL     H127786   5.519   7.070   7.327  0.1821  0.7932  0.2544
  529SOL     H227787   5.407   7.059   7.429  0.3692  0.9241  0.4756
  530SOL    OH227788   1.442   3.957   0.627  0.1737 -0.3898  0.7197
  530SOL     H127789   1.508   3.889   0.639 -0.3744 -0.9378  0.6935
  530SOL     H227790   1.360   3.908   0.615 -0.1649  0.2687  0.3356
  531SOL    OH227791   2.497   4.343   1.633 -1.1066  0.4760 -0.5567
  531SOL     H127792   2.431   4.387   1.579 -3.1442 -2.0776 -0.2722
  531SOL     H227793   2.469   4.357   1.723 -1.5588 -1.0059 -0.4481
  532SOL    OH227794   6.306   7.887   6.581 -0.1717 -0.2533 -0.6060
  532SOL     H127795   6.371   7.818   6.569  0.2788  0.1224 -0.3290
  532SOL     H227796   6.244   7.851   6.645  0.3812 -0.1685 -0.0297
  533SOL    OH227797   4.596   5.979   6.739 -0.9129  0.0353 -0.4474
  533SOL     H127798   4.553   5.994   6.823 -1.0938 -0.1627 -0.5060
  533SOL     H227799   4.647   6.059   6.724 -1.0534  0.1604 -0.2545
  534SOL    OH227800   5.948   5.354   7.145 -0.0239  0.8304 -0.3605
  534SOL     H127801   5.941   5.319   7.057 -1.4207  0.7686 -0.2260
  534SOL     H227802   5.923   5.282   7.202  0.7579  0.9060  0.0849
  535SOL    OH227803   1.759   7.290   0.268  0.5076 -0.0853  0.1630
  535SOL     H127804   1.814   7.345   0.212  1.1252 -1.6086 -0.7625
  535SOL     H227805   1.821   7.232   0.313 -0.1440 -0.0976  1.0580
  536SOL    OH227806   2.896   0.893   8.285  0.6527  0.0775 -0.5078
  536SOL     H127807   2.924   0.951   8.214  1.9535  1.6172  1.2185
  536SOL     H227808   2.973   0.839   8.303  0.4497 -0.0468 -0.0167
  537SOL    OH227809   6.932   3.881   6.439 -0.3921  0.2049  0.5242
  537SOL     H127810   6.875   3.866   6.514  0.1132  0.0090  0.8755
  537SOL     H227811   6.873   3.897   6.365 -0.9068  1.9368  1.2733
  538SOL    OH227812   7.363   1.031   7.826 -0.1413 -0.0288  0.3752
  538SOL     H127813   7.330   1.085   7.754  1.3425 -0.4773 -0.6548
  538SOL     H227814   7.296   0.963   7.837 -0.5050  0.2008 -0.4095
  539SOL    OH227815   2.851   7.378   1.639  0.5761  0.5354  0.0770
  539SOL     H127816   2.898   7.462   1.644  0.3024  0.6568  0.6734
  539SOL     H227817   2.868   7.346   1.551 -0.5121  1.9146 -0.6568
  540SOL    OH227818   5.157   3.440   7.674 -0.6953 -0.1108 -0.4452
  540SOL     H127819   5.183   3.525   7.710  0.6179 -0.4192 -0.6564
  540SOL     H227820   5.146   3.456   7.580 -0.2157 -0.2214 -0.5230
  541SOL    OH227821   6.737   1.775   7.036 -0.1584  0.8066 -0.3151
  541SOL     H127822   6.724   1.759   7.130 -1.6471 -0.7925 -0.7595
  541SOL     H227823   6.812   1.835   7.032  1.6393 -1.1694  1.7927
  542SOL    OH227824   0.082   4.056   0.546 -0.0651 -0.2197 -0.0721
  542SOL     H127825   0.129   3.977   0.573 -1.0234 -1.0290 -0.7544
  542SOL     H227826  -0.002   4.050   0.591 -0.8048 -0.4522 -1.4800
  543SOL    OH227827   4.863   6.143   7.485 -0.2701  0.1314 -0.1866
  543SOL     H127828   4.894   6.112   7.570  0.0058 -1.6683 -0.9340
  543SOL     H227829   4.818   6.226   7.505  1.7251  0.8873  1.4161
  544SOL    OH227830   5.635   5.060   6.933  0.3065 -0.1225  0.0018
  544SOL     H127831   5.682   5.054   7.016  2.7314  0.3415 -1.3067
  544SOL     H227832   5.627   5.154   6.917  0.6864 -0.2200 -0.7639
  545SOL    OH227833   6.145   7.587   7.726  0.2212 -0.0332  0.1294
  545SOL     H127834   6.205   7.632   7.786 -0.8792 -0.1897  1.3817
  545SOL     H227835   6.104   7.657   7.675  0.0699  0.2310  0.6105
  546SOL    OH227836   3.592   4.182   6.270  0.0177 -0.4303  0.0682
  546SOL     H127837   3.583   4.250   6.203 -0.8321 -0.7630 -0.1617
  546SOL     H227838   3.669   4.131   6.242  0.6382  0.4087  0.2263
  547SOL    OH227839   6.647   2.718   1.056  0.2738 -0.3167 -0.0704
  547SOL     H127840   6.587   2.734   1.129  1.1104  0.5337  0.4313
  547SOL     H227841   6.665   2.624   1.061 -0.5431 -0.4664  0.1424
  548SOL    OH227842   4.998   7.469   0.086  0.3351  0.0898 -0.3733
  548SOL     H127843   4.988   7.439  -0.005 -0.1216 -2.0439  0.3746
  548SOL     H227844   5.044   7.399   0.130 -0.4164  0.6405  1.3261
  549SOL    OH227845   4.910   0.245   0.350  1.1428 -0.2642 -0.2486
  549SOL     H127846   4.888   0.154   0.331  0.7828 -0.4810  1.1848
  549SOL     H227847   4.872   0.294   0.276 -1.9075 -0.9141  0.7950
  550SOL    OH227848   2.062   2.558   6.956 -0.2204 -0.1689  0.5845
  550SOL     H127849   2.015   2.537   7.037 -0.0482 -2.6938  0.0971
  550SOL     H227850   1.999   2.537   6.886 -0.7063  2.8862  0.0453
  551SOL    OH227851   3.233   7.601   0.872  0.0302 -0.2892  0.2283
  551SOL     H127852   3.163   7.602   0.938  0.0329 -1.1055  0.2572
  551SOL     H227853   3.287   7.677   0.892 -2.1349  1.6543 -1.2086
  552SOL    OH227854   0.739   4.439   2.698  0.5171  0.0883  0.1918
  552SOL     H127855   0.709   4.466   2.611  1.4123  0.3095 -0.0536
  552SOL     H227856   0.763   4.347   2.688 -2.3072 -0.7538  0.9707
  553SOL    OH227857   2.012   5.703   8.046 -0.2100 -0.1666 -0.2270
  553SOL     H127858   2.091   5.714   7.992  1.3415 -0.7665  1.8320
  553SOL     H227859   1.989   5.611   8.036  0.3178 -0.3742  0.4292
  554SOL    OH227860   3.418   7.307   5.879 -0.2260  0.2322  0.6107
  554SOL     H127861   3.364   7.378   5.846  0.7559  1.0313  0.6945
  554SOL     H227862   3.360   7.256   5.936 -1.0816  0.6351  0.0862
  555SOL    OH227863   4.127   4.207   6.735  0.6085 -1.0194 -0.2804
  555SOL     H127864   4.067   4.132   6.745 -0.3266 -0.6009 -2.4721
  555SOL     H227865   4.074   4.283   6.761  1.5459 -1.0632  1.9081
  556SOL    OH227866   3.788   4.307   7.056  0.1348  0.0509  0.2332
  556SOL     H127867   3.735   4.367   7.004 -0.1517 -0.7464 -0.4071
  556SOL     H227868   3.734   4.287   7.132 -1.1012 -1.8483 -1.0908
  557SOL    OH227869   7.835   4.218   8.219 -0.0781 -0.0375 -0.0820
  557SOL     H127870   7.888   4.196   8.143 -0.4030  0.8272 -0.5600
  557SOL     H227871   7.848   4.311   8.232 -0.0199 -0.1817  0.9291
  558SOL    OH227872   3.943   5.248   6.585 -0.5021 -0.3332 -0.1987
  558SOL     H127873   4.007   5.209   6.646 -1.2878 -2.0768 -0.4537
  558SOL     H227874   3.913   5.328   6.629  1.9535  0.5940 -0.1508
  559SOL    OH227875   1.386   6.882   2.334 -0.7870  0.1296 -0.1954
  559SOL     H127876   1.476   6.911   2.319 -0.5292 -0.3869  0.3355
  559SOL     H227877   1.392   6.786   2.340 -1.2484  0.1430  0.6199
  560SOL    OH227878   2.174   4.554   6.977  0.2452 -0.4826  0.4695
  560SOL     H127879   2.228   4.479   6.951  0.5266  0.0410 -0.4924
  560SOL     H227880   2.111   4.564   6.906 -0.2438 -0.2420  0.9312
  561SOL    OH227881   3.473   0.034   7.863 -0.4466 -0.2894 -0.3483
  561SOL     H127882   3.408   0.016   7.932 -1.4889  1.0393 -0.9447
  561SOL     H227883   3.448  -0.023   7.791  0.3276 -1.3040  0.1856
  562SOL    OH227884   0.514   6.281   1.641  0.4664  0.1630  0.9458
  562SOL     H127885   0.568   6.360   1.634 -0.7038  0.7648 -2.1726
  562SOL     H227886   0.572   6.210   1.613  0.4016  0.4784 -0.0216
  563SOL    OH227887   6.427   5.050   1.896 -0.2228  0.2685 -0.6465
  563SOL     H127888   6.388   4.971   1.934  0.7585  0.2401  0.3187
  563SOL     H227889   6.409   5.042   1.802 -1.5400 -0.2998 -0.3629
  564SOL    OH227890   5.862   0.343   1.529 -0.0060 -0.3146  0.0097
  564SOL     H127891   5.903   0.336   1.443  0.4959 -0.6236  0.2693
  564SOL     H227892   5.903   0.419   1.569  2.1282 -2.0182  1.2155
  565SOL    OH227893   4.804   7.999   2.231  0.0542 -0.0327 -0.4684
  565SOL     H127894   4.861   7.934   2.271 -0.6644 -1.5976 -1.8654
  565SOL     H227895   4.722   7.952   2.216 -0.9555  1.6178 -0.2466
  566SOL    OH227896   4.811   4.455   0.604  0.4215  0.1523 -0.0226
  566SOL     H127897   4.753   4.471   0.530  0.8850  1.2939 -0.1492
  566SOL     H227898   4.811   4.360   0.615 -0.7118  0.0833 -0.6235
  567SOL    OH227899   6.032   4.639   3.257  0.3326  0.2134 -0.2192
  567SOL     H127900   5.936   4.642   3.264  0.3775 -0.3211  0.6815
  567SOL     H227901   6.056   4.554   3.294  1.1279  0.1803 -0.8052
  568SOL    OH227902   2.302   0.584   6.950  0.3734  0.7062  0.4171
  568SOL     H127903   2.322   0.572   6.857  0.9555  1.5749  0.4178
  568SOL     H227904   2.380   0.550   6.995 -0.6888 -1.4781  0.6795
  569SOL    OH227905   0.456   2.770   1.670  0.0916 -0.2771 -0.1130
  569SOL     H127906   0.413   2.685   1.672 -1.4372  0.4478 -1.5867
  569SOL     H227907   0.405   2.822   1.609  2.1123  1.1264 -0.6780
  570SOL    OH227908   2.291   5.141   1.236 -0.0137 -0.1853  0.2708
  570SOL     H127909   2.333   5.215   1.193 -0.0873  1.3508  2.7229
  570SOL     H227910   2.202   5.171   1.254  0.0510 -0.7384  1.5615
  571SOL    OH227911   2.990   7.777   1.215  0.2676 -0.2839  0.3526
  571SOL     H127912   2.949   7.828   1.284 -1.0501 -0.0972 -0.5469
  571SOL     H227913   3.048   7.839   1.171 -1.0607  0.3761 -0.5108
  572SOL    OH227914   0.837   4.345   0.559  0.0893 -0.3035 -0.5930
  572SOL     H127915   0.845   4.300   0.643 -0.0245  0.7062 -0.0282
  572SOL     H227916   0.784   4.287   0.505  1.7168 -1.8488 -0.6088
  573SOL    OH227917   2.054   7.869   0.313  0.0322  0.0885  0.1677
  573SOL     H127918   2.084   7.828   0.394 -0.4935 -2.2933 -0.8167
  573SOL     H227919   2.114   7.943   0.301  2.9500 -2.1263  0.4399
  574SOL    OH227920   3.406   7.438   1.364  0.9526 -0.1163  0.2525
  574SOL     H127921   3.445   7.516   1.405  1.1517  1.4611 -2.8462
  574SOL     H227922   3.324   7.469   1.326  0.7287 -1.5652 -0.4654
  575SOL    OH227923   6.954   2.565   8.256 -0.0289  0.1794  0.5535
  575SOL     H127924   6.868   2.525   8.245  0.2144 -0.2345  0.1116
  575SOL     H227925   6.938   2.642   8.310 -0.6039 -0.1554  0.8666
  576SOL    OH227926   2.052   2.676   7.292 -0.3205  0.3264  0.2136
  576SOL     H127927   2.018   2.604   7.239 -1.0577  0.9694 -0.2067
  576SOL     H227928   1.974   2.725   7.318  0.2009  1.1912  0.1636
  577SOL    OH227929   3.787   5.624   7.289  0.2806 -0.3587 -0.4655
  577SOL     H127930   3.857   5.597   7.348 -0.6306 -2.7430 -0.4365
  577SOL     H227931   3.716   5.653   7.347  0.5767  0.4055 -0.4726
  578SOL    OH227932   1.577   6.084   0.610 -0.2548  0.4034  0.5848
  578SOL     H127933   1.528   6.051   0.685 -0.5465  0.7680  0.5587
  578SOL     H227934   1.608   6.006   0.564  0.1680  0.1858  1.2445
  579SOL    OH227935   6.151   1.779   1.743  0.6886  0.0237 -0.2337
  579SOL     H127936   6.160   1.767   1.837  2.6474  2.0401 -0.1181
  579SOL     H227937   6.239   1.766   1.708  0.2164  0.4497 -1.6352
  580SOL    OH227938   5.238   7.617   0.585  0.1467  0.3264  0.1204
  580SOL     H127939   5.179   7.678   0.630 -0.5969 -0.4088  0.1555
  580SOL     H227940   5.180   7.559   0.535  0.8511 -0.2326 -0.0632
  581SOL    OH227941   4.729   7.956   7.767 -0.3798  0.6964 -0.4293
  581SOL     H127942   4.661   8.003   7.720  0.5989 -0.0232 -2.6359
  581SOL     H227943   4.769   7.899   7.702  0.2795 -1.1916  1.5442
  582SOL    OH227944   3.781   5.316   7.270  0.7085 -0.1873  0.3425
  582SOL     H127945   3.839   5.335   7.196 -1.4918 -1.2388 -1.6900
  582SOL     H227946   3.741   5.400   7.291  0.9879  0.0227  0.0508
  583SOL    OH227947   4.507   2.529   7.743  0.2907 -0.2178 -0.1538
  583SOL     H127948   4.558   2.469   7.690  0.1813 -0.3070 -0.1581
  583SOL     H227949   4.543   2.615   7.723  0.5805 -0.3021  0.0031
  584SOL    OH227950   4.569   4.130   1.225 -0.1104 -0.5922  0.4247
  584SOL     H127951   4.554   4.060   1.287  1.6168 -0.8264  0.6041
  584SOL     H227952   4.650   4.172   1.255 -0.2298  0.4250 -0.6251
  585SOL    OH227953   6.812   7.872   7.392 -0.4199 -0.2767 -0.1017
  585SOL     H127954   6.724   7.901   7.416  0.0187 -0.1954  1.4803
  585SOL     H227955   6.869   7.944   7.419  0.2368 -0.7721 -0.1510
  586SOL    OH227956   6.080   2.576   7.062  0.0470 -0.2515 -0.0693
  586SOL     H127957   6.115   2.665   7.068  0.0015 -0.2887  0.8046
  586SOL     H227958   6.133   2.534   6.994  1.9830 -0.4353  1.5155
  587SOL    OH227959   6.817   4.719   0.794 -0.4079 -0.1456 -0.2452
  587SOL     H127960   6.882   4.701   0.726  0.4628  0.3907  0.4374
  587SOL     H227961   6.863   4.702   0.876 -0.9305  0.8467  0.2606
  588SOL    OH227962   2.699   1.515   0.303 -0.3553  0.7547 -0.4863
  588SOL     H127963   2.638   1.586   0.282 -2.7115 -1.0163  0.1062
  588SOL     H227964   2.652   1.436   0.278  1.0862 -0.7624  1.4891
  589SOL    OH227965   4.691   6.749   1.224 -0.0484  1.0596 -0.3924
  589SOL     H127966   4.690   6.669   1.276  0.4833  0.4382 -1.3146
  589SOL     H227967   4.768   6.797   1.254 -0.4192  1.2590  0.2253
  590SOL    OH227968   3.632   7.380   6.782  0.3612  0.0365  0.2761
  590SOL     H127969   3.593   7.467   6.777  0.5093  0.2709  2.4572
  590SOL     H227970   3.575   7.332   6.843  1.9352 -0.4537  1.3967
  591SOL    OH227971   5.554   7.569   6.121 -0.0798  0.2046 -0.1064
  591SOL     H127972   5.477   7.515   6.103 -1.0040  0.8327  1.8891
  591SOL     H227973   5.559   7.574   6.216  0.7018  2.6139 -0.2439
  592SOL    OH227974   6.481   7.204   1.642  0.0884  0.3618 -0.8462
  592SOL     H127975   6.526   7.132   1.599 -1.4520  0.6206 -2.9936
  592SOL     H227976   6.399   7.166   1.674 -0.3447  0.9516 -1.2316
  593SOL    OH227977   5.944   0.798   1.422  0.2535  0.1340 -0.2105
  593SOL     H127978   5.852   0.802   1.394 -0.3267 -2.2857  1.1744
  593SOL     H227979   5.991   0.766   1.345 -0.4552 -0.9673 -0.1981
  594SOL    OH227980   5.127   2.170   1.651 -0.1895 -0.1294 -0.1141
  594SOL     H127981   5.222   2.172   1.647 -0.2549  1.1707 -1.6375
  594SOL     H227982   5.100   2.118   1.575 -0.6943 -1.0511  0.6758
  595SOL    OH227983   6.045   0.486   1.858  0.6079 -0.1274  0.5565
  595SOL     H127984   6.043   0.390   1.867  0.9894 -0.1083  0.8527
  595SOL     H227985   5.969   0.506   1.803  1.7528 -0.8147 -1.3365
  596SOL    OH227986   2.313   0.141   8.167  0.1700 -0.0944  0.9937
  596SOL     H127987   2.396   0.093   8.173  1.2635  1.7891  1.4906
  596SOL     H227988   2.338   0.232   8.182 -1.5179  0.9336 -1.9611
  597SOL    OH227989   1.230   0.514   0.962 -0.2361  0.5298  0.8271
  597SOL     H127990   1.292   0.587   0.962 -0.7795  1.0220  3.2212
  597SOL     H227991   1.273   0.447   0.908  0.5698  2.3355 -0.8280
  598SOL    OH227992   3.981   7.333   1.020 -0.6072  0.5032 -0.4982
  598SOL     H127993   4.050   7.340   0.954 -0.1337  0.3404 -0.0257
  598SOL     H227994   3.976   7.420   1.058  0.4984  0.0986  0.6137
  599SOL    OH227995   0.140   4.344   2.152  0.0809 -0.0487 -0.1333
  599SOL     H127996   0.115   4.363   2.061 -0.3437  0.7318  0.1497
  599SOL     H227997   0.057   4.345   2.200  0.1884 -1.4486  0.0909
  600SOL    OH227998   3.738   1.622   7.825 -0.3088 -0.0696  0.3768
  600SOL     H127999   3.818   1.631   7.876 -0.4565  1.8421  0.3041
  600SOL     H228000   3.765   1.576   7.746  0.5966  0.0122  0.6333
  601SOL    OH228001   4.645   3.903   1.737 -0.6291  0.6129 -0.1633
  601SOL     H128002   4.637   3.838   1.807 -0.5328  0.4046 -0.3489
  601SOL     H228003   4.621   3.986   1.779 -0.0225  0.5766  0.2624
  602SOL    OH228004   2.413   3.198   1.234  0.3088 -0.4501 -0.7117
  602SOL     H128005   2.324   3.182   1.202  0.1139 -1.5714  0.3255
  602SOL     H228006   2.419   3.292   1.245 -2.1374 -0.6256  3.0155
  603SOL    OH228007   5.247   6.089   0.718  0.2598  0.0406  0.4297
  603SOL     H128008   5.183   6.022   0.694  1.2584 -0.7487 -0.1078
  603SOL     H228009   5.284   6.057   0.801  1.3214 -0.5192 -0.2435
  604SOL    OH228010   3.396   2.161   6.831  0.4326  0.4393  0.7216
  604SOL     H128011   3.342   2.241   6.831 -0.3701 -0.0913  1.2923
  604SOL     H228012   3.371   2.116   6.912  1.8337  0.2455  1.0465
  605SOL    OH228013   6.792   4.708   0.018  0.2225 -0.5253  0.3431
  605SOL     H128014   6.865   4.769   0.010 -0.1655 -0.3806 -2.5648
  605SOL     H228015   6.749   4.733   0.100  0.6015  2.4855 -0.3252
  606SOL    OH228016   1.045   6.464   7.214 -0.5209  0.1949 -0.2277
  606SOL     H128017   1.020   6.525   7.145 -0.9022  0.1136 -0.1623
  606SOL     H228018   1.039   6.378   7.173  1.4854  0.2862 -0.7705
  607SOL    OH228019   5.852   6.274   6.654 -0.3060 -0.2906  0.2439
  607SOL     H128020   5.847   6.308   6.744  1.5674  1.1154 -0.1385
  607SOL     H228021   5.922   6.208   6.658 -0.6019 -0.6207 -0.0708
  608SOL    OH228022   5.249   1.015   1.320  0.4041 -0.4906  0.0964
  608SOL     H128023   5.304   0.937   1.311  1.4941  0.2032  0.6439
  608SOL     H228024   5.311   1.087   1.330 -0.6471 -0.0261  3.6782
  609SOL    OH228025   6.813   0.723   6.980 -0.7552 -0.1969 -0.3966
  609SOL     H128026   6.868   0.801   6.976  0.7965 -1.3139 -1.0274
  609SOL     H228027   6.723   0.758   6.977 -0.1690  1.7335  2.3372
  610SOL    OH228028   6.883   1.020   7.799  0.3895  0.1777  0.5130
  610SOL     H128029   6.864   1.110   7.772 -0.5429  0.0761  0.8089
  610SOL     H228030   6.960   0.996   7.749  0.9769  1.3360  0.8384
  611SOL    OH228031   7.286   6.874   1.692 -0.1963 -0.1928 -0.3343
  611SOL     H128032   7.205   6.920   1.711  0.5707  0.8343  0.5383
  611SOL     H228033   7.355   6.932   1.724  0.8686 -1.1872 -0.7647
  612SOL    OH228034   7.059   5.347   7.050  0.2255 -0.0256  0.2408
  612SOL     H128035   7.004   5.333   7.127  0.4036  1.5445  0.6850
  612SOL     H228036   7.058   5.442   7.037  1.2494 -0.1514 -0.9178
  613SOL    OH228037   3.177   2.129   0.394  0.2634 -0.0425 -0.2556
  613SOL     H128038   3.162   2.035   0.396 -2.0561  0.3238  1.3121
  613SOL     H228039   3.130   2.159   0.316 -0.7857  0.0834  0.4166
  614SOL    OH228040   2.819   0.035   1.762  0.1593 -0.1531 -0.1728
  614SOL     H128041   2.765   0.043   1.841 -0.4304 -1.2847 -0.4530
  614SOL     H228042   2.773  -0.030   1.709 -1.5233  3.2950 -3.1507
  615SOL    OH228043   5.508   3.008   1.137  1.0762  0.1240 -0.5031
  615SOL     H128044   5.602   2.990   1.138  0.5837 -2.7406 -1.5415
  615SOL     H228045   5.485   3.020   1.229  2.3449  0.2672 -0.1993
  616SOL    OH228046   1.290   6.913   0.360  0.2772 -0.3552 -0.5931
  616SOL     H128047   1.314   7.003   0.383  0.9724 -0.2679 -1.5995
  616SOL     H228048   1.220   6.922   0.296  1.9350 -0.4514 -2.4737
  617SOL    OH228049   6.941   6.584   8.263 -0.0356 -0.0408  0.3509
  617SOL     H128050   6.951   6.659   8.204 -2.6574 -0.7741 -1.0992
  617SOL     H228051   7.000   6.518   8.228 -0.6390 -0.0251 -0.7137
  618SOL    OH228052   6.378   1.791   8.034 -0.1947 -0.8502 -0.0286
  618SOL     H128053   6.368   1.727   8.104  0.8461 -1.3324 -0.3217
  618SOL     H228054   6.457   1.840   8.056  0.4078 -1.3253 -1.1097
  619SOL    OH228055   4.436   3.581   7.790 -0.3257  0.4257  0.4437
  619SOL     H128056   4.388   3.508   7.831  0.3403 -1.0534 -1.3666
  619SOL     H228057   4.447   3.554   7.699  3.2999  1.0767  0.6522
  620SOL    OH228058   3.958   4.475   7.918 -0.2121 -0.0989 -0.1360
  620SOL     H128059   4.050   4.496   7.902 -0.5295  0.7513 -0.9085
  620SOL     H228060   3.926   4.547   7.973 -0.2415 -0.7492  0.7016
  621SOL    OH228061   4.331   2.925   0.378  0.0841  0.2571 -0.1400
  621SOL     H128062   4.383   2.896   0.302 -2.6135 -1.0510 -1.5694
  621SOL     H228063   4.332   3.021   0.372  2.2016  0.2471 -0.2158
  622SOL    OH228064   0.925   6.609   7.770  0.1372  0.5273  0.0393
  622SOL     H128065   0.980   6.617   7.691 -1.9964 -2.1964 -1.8053
  622SOL     H228066   0.843   6.652   7.745 -1.0202 -1.4966  0.2662
  623SOL    OH228067   6.084   0.307   7.645 -0.2804 -0.3615  0.5499
  623SOL     H128068   6.083   0.237   7.580  0.4081  0.0389  0.1066
  623SOL     H228069   6.040   0.381   7.603 -0.7249 -0.4256  0.9009
  624SOL    OH228070   3.925   0.123   7.844 -0.1584 -0.1211  0.7752
  624SOL     H128071   3.838   0.162   7.843  0.1897  0.6387 -0.5251
  624SOL     H228072   3.910   0.031   7.863 -1.2118  0.0784  0.9264
  625SOL    OH228073   6.512   4.772   1.105  0.3563  0.4351 -0.0035
  625SOL     H128074   6.499   4.859   1.068 -2.6878  0.0075 -0.0488
  625SOL     H228075   6.539   4.718   1.031  1.4979  1.1532 -0.1207
  626SOL    OH228076   2.554   6.682   6.474 -0.0773 -0.3349  0.2021
  626SOL     H128077   2.595   6.758   6.515  1.0140  0.1140 -1.6606
  626SOL     H228078   2.573   6.610   6.535  0.5703  0.5084  1.0232
  627SOL    OH228079   7.161   4.708   6.748 -0.3972  0.4667 -0.2885
  627SOL     H128080   7.143   4.687   6.839 -0.4617 -0.7009 -0.5556
  627SOL     H228081   7.118   4.638   6.698 -2.1239  2.2122 -1.3252
  628SOL    OH228082   1.850   4.389   1.643 -0.0402 -0.3297  0.1567
  628SOL     H128083   1.826   4.312   1.695 -1.9315 -0.0937 -0.3568
  628SOL     H228084   1.767   4.430   1.621  0.9341  1.5563 -0.0639
  629SOL    OH228085   7.060   3.380   0.720  0.5685 -0.3735  0.0486
  629SOL     H128086   7.014   3.377   0.804 -0.0340 -1.9100 -0.3246
  629SOL     H228087   7.021   3.455   0.674  0.3426 -0.0158  0.8135
  630SOL    OH228088   4.104   4.348   0.979 -0.2334 -0.1456  0.6085
  630SOL     H128089   4.095   4.428   1.030 -1.3119 -0.3688  0.7655
  630SOL     H228090   4.042   4.286   1.017 -0.4232 -0.6002 -0.4022
  631SOL    OH228091   2.185   2.637   0.507  0.0915  0.5509  0.5692
  631SOL     H128092   2.270   2.664   0.474 -0.6416 -0.6522 -2.4253
  631SOL     H228093   2.198   2.548   0.538  0.5871  1.4012  2.9152
  632SOL    OH228094   1.358   5.210   1.577  0.2732 -0.5906 -0.4452
  632SOL     H128095   1.376   5.284   1.635  0.6057 -1.2223  0.2616
  632SOL     H228096   1.389   5.133   1.625 -1.8279 -1.4220 -0.3423
  633SOL    OH228097   0.234   2.168   1.278 -0.1703  0.0670  0.3159
  633SOL     H128098   0.222   2.233   1.347  0.4307  1.2444 -0.6760
  633SOL     H228099   0.146   2.136   1.259 -0.4477  0.4655  0.9117
  634SOL    OH228100   5.063   6.603   7.834  0.2461 -0.3619  0.3899
  634SOL     H128101   5.000   6.547   7.880  0.3884  0.9710  2.2769
  634SOL     H228102   5.148   6.572   7.866  0.4351 -0.6550 -0.4056
  635SOL    OH228103   1.122   6.774   6.205 -0.4433 -0.0211  0.0527
  635SOL     H128104   1.182   6.846   6.224  0.2903 -0.6429  0.1241
  635SOL     H228105   1.041   6.798   6.251  0.6048 -0.4483  2.2035
  636SOL    OH228106   0.209   4.003   1.697  0.0901 -0.1033 -0.5292
  636SOL     H128107   0.160   4.084   1.707  0.4053  0.1792 -1.2686
  636SOL     H228108   0.296   4.030   1.670  0.6765 -0.6074  0.8221
  637SOL    OH228109   3.499   3.843   0.087  0.8275  0.2026  0.2921
  637SOL     H128110   3.429   3.787   0.120  1.5547 -0.8966 -0.0216
  637SOL     H228111   3.466   3.877   0.004  1.3079 -1.6213 -0.6716
  638SOL    OH228112   7.436   3.501   6.477  0.0734 -0.1654  0.1466
  638SOL     H128113   7.430   3.438   6.549  0.9083 -2.7435 -1.9541
  638SOL     H228114   7.530   3.507   6.459 -0.0504  1.3020 -0.0121
  639SOL    OH228115   4.137   0.900   5.650  0.3891  0.0030  1.0418
  639SOL     H128116   4.144   0.808   5.627  1.3015  0.1503  0.7423
  639SOL     H228117   4.068   0.934   5.592  0.7110 -0.2715  0.4951
  640SOL    OH228118   1.549   7.423   8.014 -0.0659  0.3112 -0.1067
  640SOL     H128119   1.537   7.347   7.958 -0.4033 -0.6876  1.3121
  640SOL     H228120   1.468   7.428   8.065  0.2882  1.1358  0.3851
  641SOL    OH228121   0.384   6.121   8.038  0.1125  0.6044 -0.5424
  641SOL     H128122   0.317   6.160   8.095 -0.1870  0.0640 -0.5279
  641SOL     H228123   0.466   6.133   8.087 -0.2583 -0.6321  0.4022
  642SOL    OH228124   3.758   5.434   6.009 -0.0345 -0.0604 -0.2409
  642SOL     H128125   3.846   5.406   5.984 -0.0938 -0.8206  0.3631
  642SOL     H228126   3.772   5.502   6.075  0.1091  0.6581 -1.0191
  643SOL    OH228127   7.630   7.360   1.587  0.3159 -0.8469 -0.5221
  643SOL     H128128   7.555   7.384   1.642 -0.6056 -0.8509 -1.7371
  643SOL     H228129   7.691   7.316   1.647 -1.1992 -1.9478  0.2558
  644SOL    OH228130   3.044   1.930   0.287  0.3182  0.3233  0.0705
  644SOL     H128131   2.973   1.888   0.336  0.1863  1.7966  1.1964
  644SOL     H228132   3.000   1.976   0.216  0.5427 -2.1218 -1.7124
  645SOL    OH228133   4.865   3.328   8.232  0.0939 -0.0798 -0.5308
  645SOL     H128134   4.907   3.406   8.195 -0.0356  0.5281  0.5823
  645SOL     H228135   4.772   3.353   8.239  0.0181 -0.4147 -0.3553
  646SOL    OH228136   4.447   7.806   0.454 -0.4411  0.6636 -0.3652
  646SOL     H128137   4.507   7.843   0.519  0.3771  0.7102 -1.1322
  646SOL     H228138   4.467   7.853   0.373 -1.0738  0.2354 -0.7795
  647SOL    OH228139   6.335   3.639   2.748 -0.0598  0.1064  0.4105
  647SOL     H128140   6.396   3.700   2.705  0.4352 -1.5064 -1.2686
  647SOL     H228141   6.248   3.671   2.725  0.1968 -0.8151 -2.0129
  648SOL    OH228142   1.873   7.427   0.068  0.1969 -0.3880 -0.4822
  648SOL     H128143   1.896   7.519   0.059  2.0613 -1.0165 -2.6488
  648SOL     H228144   1.937   7.380   0.014 -0.8319 -2.9443  0.4024
  649SOL    OH228145   5.635   5.901   2.254  0.0621  0.1162 -0.4911
  649SOL     H128146   5.631   5.941   2.341  1.1905  0.2665 -0.5011
  649SOL     H228147   5.627   5.807   2.270 -2.1733  0.2799 -0.4336
  650SOL    OH228148   7.153   5.734   7.874 -0.0826 -0.4658  0.5930
  650SOL     H128149   7.162   5.776   7.788 -2.7662  0.0597  0.5396
  650SOL     H228150   7.208   5.786   7.932  0.1397  0.4153 -0.3788
  651SOL    OH228151   3.291   5.192   0.201  0.3299  0.4344  0.1317
  651SOL     H128152   3.269   5.283   0.218 -1.7928  0.1637 -0.9491
  651SOL     H228153   3.292   5.150   0.288  0.9053  1.3787  0.5848
  652SOL    OH228154   0.797   0.980   5.858  0.1775 -0.6733 -0.5065
  652SOL     H128155   0.851   1.054   5.886 -1.6825  0.9419 -1.1405
  652SOL     H228156   0.856   0.904   5.863  1.9191  0.7412  0.7381
  653SOL    OH228157   2.842   1.046   0.220 -0.2178 -0.0224  0.1247
  653SOL     H128158   2.919   0.995   0.245  0.0689 -0.3647 -1.3925
  653SOL     H228159   2.820   1.015   0.132 -1.2333  1.0717 -0.0227
  654SOL    OH228160   6.641   0.663   8.076 -0.1053 -0.2806  0.1665
  654SOL     H128161   6.727   0.691   8.106 -0.0888 -0.3109  0.1451
  654SOL     H228162   6.614   0.730   8.014 -0.2176 -0.1177  0.3870
  655SOL    OH228163   6.309   1.273   0.790  0.5408  0.3342  0.2975
  655SOL     H128164   6.253   1.284   0.713  1.8072  1.6308 -0.4649
  655SOL     H228165   6.296   1.182   0.816 -2.0861  0.6864  0.2818
  656SOL    OH228166   2.830   4.251   6.772 -0.0940  0.6850  0.3928
  656SOL     H128167   2.771   4.238   6.698  0.7041 -0.4122 -0.0577
  656SOL     H228168   2.891   4.177   6.768 -0.5835  0.1071  2.6599
  657SOL    OH228169   5.674   6.887   1.749  0.0518 -0.4995  0.2607
  657SOL     H128170   5.743   6.871   1.813  2.0893  0.7622 -1.5246
  657SOL     H228171   5.593   6.873   1.797  1.5336 -3.2873  2.0817
  658SOL    OH228172   4.705   5.419   0.690  0.5098  0.0610 -0.2497
  658SOL     H128173   4.644   5.346   0.680 -0.3705  0.7794 -0.1716
  658SOL     H228174   4.696   5.469   0.609 -1.3761  1.9333  1.0541
  659SOL    OH228175   3.886   1.470   2.352  0.3880  0.1095 -0.1695
  659SOL     H128176   3.807   1.523   2.343  0.0994 -0.3605 -0.4786
  659SOL     H228177   3.949   1.510   2.293  0.0183 -0.1687 -0.7625
  660SOL    OH228178   7.896   1.727   2.278  0.2083  0.4452 -0.4274
  660SOL     H128179   7.804   1.739   2.256 -0.0152 -0.3922  0.0489
  660SOL     H228180   7.939   1.806   2.243 -0.6746  0.8282 -0.6687
  661SOL    OH228181   3.902   3.440   6.116  0.3463  0.6747 -0.3823
  661SOL     H128182   3.873   3.349   6.120  0.2906  0.6487 -1.3283
  661SOL     H228183   3.825   3.491   6.142 -0.3414  0.5638 -2.1098
  662SOL    OH228184   6.420   7.781   0.069  0.3538 -0.0254 -0.0024
  662SOL     H128185   6.420   7.775   0.165 -0.3632 -0.5329 -0.0374
  662SOL     H228186   6.391   7.696   0.039 -1.6536  0.8596 -0.6272
  663SOL    OH228187   6.539   3.142   1.869 -0.1550 -0.2444  0.3579
  663SOL     H128188   6.543   3.046   1.861 -0.0613 -0.1722 -0.4517
  663SOL     H228189   6.468   3.168   1.811 -0.1410  0.1834  0.5349
  664SOL    OH228190   7.472   2.258   6.868 -0.0136  0.3888  0.2073
  664SOL     H128191   7.452   2.246   6.961 -1.9763 -0.6986 -0.3433
  664SOL     H228192   7.420   2.192   6.823 -0.4930  2.0990 -1.8290
  665SOL    OH228193   3.862   2.315   0.909 -0.0962 -0.8995  0.4571
  665SOL     H128194   3.775   2.275   0.900  0.1935 -1.2502 -1.0359
  665SOL     H228195   3.888   2.296   0.999 -0.8343 -2.3230  0.3947
  666SOL    OH228196   5.122   7.264   8.040  0.4219  0.1420 -0.5906
  666SOL     H128197   5.123   7.251   7.945 -0.7595 -1.2794 -0.4304
  666SOL     H228198   5.032   7.286   8.061  0.3214 -1.1171  0.3865
  667SOL    OH228199   1.467   7.137   0.126 -0.0122  0.1132  0.0958
  667SOL     H128200   1.387   7.188   0.111 -1.4939 -1.7420  1.4237
  667SOL     H228201   1.492   7.106   0.039  0.4462  2.3645 -0.6071
  668SOL    OH228202   1.556   7.893   1.041 -0.5112  0.2425 -0.0688
  668SOL     H128203   1.532   7.869   1.130 -2.0742  1.2133 -0.2102
  668SOL     H228204   1.588   7.982   1.048  0.3833 -0.0545 -0.3233
  669SOL    OH228205   2.150   7.938   1.785  0.0024 -0.1499 -0.1531
  669SOL     H128206   2.068   7.986   1.769  0.7440  0.9495 -0.6665
  669SOL     H228207   2.187   7.924   1.698  1.2473  0.9057  0.2006
  670SOL    OH228208   1.540   0.649   1.657  0.2571  0.0646 -0.1418
  670SOL     H128209   1.529   0.687   1.744 -0.9388  0.6319 -0.5311
  670SOL     H228210   1.509   0.559   1.665  0.4073  0.0339  0.0842
  671SOL    OH228211   3.062   4.089   7.113 -1.1000  0.5624 -0.3961
  671SOL     H128212   3.055   4.010   7.167  0.8127 -0.1554 -1.1355
  671SOL     H228213   3.076   4.055   7.024 -1.1621  1.7376 -0.8583
  672SOL    OH228214   4.152   1.324   0.208 -0.4255  0.0190  0.0962
  672SOL     H128215   4.141   1.338   0.114 -2.2061  0.3422  0.3363
  672SOL     H228216   4.226   1.264   0.215 -1.5055 -1.5695 -1.6089
  673SOL    OH228217   6.455   6.352   7.478  0.2579 -0.1369  0.9237
  673SOL     H128218   6.422   6.436   7.511  1.6426  0.0795  1.7721
  673SOL     H228219   6.456   6.363   7.383 -0.3036  0.5291  0.9830
  674SOL    OH228220   6.555   1.842   5.824  0.2387  0.1868 -0.6859
  674SOL     H128221   6.607   1.849   5.744  1.5713  2.1397  0.3085
  674SOL     H228222   6.620   1.824   5.893 -0.5406  1.2750  0.3541
  675SOL    OH228223   4.679   4.206   6.275 -0.0054 -0.5396  0.2248
  675SOL     H128224   4.690   4.149   6.351 -2.5748 -0.5571  0.6150
  675SOL     H228225   4.639   4.150   6.208 -0.5535  0.2519 -0.1171
  676SOL    OH228226   1.278   2.795   7.005 -0.0494 -0.3682  0.3823
  676SOL     H128227   1.327   2.768   6.927 -1.3412 -1.4200 -0.0839
  676SOL     H228228   1.282   2.891   7.004  0.7035 -0.3977 -0.4747
  677SOL    OH228229   1.296   3.300   1.423 -0.0498  0.9076  0.0999
  677SOL     H128230   1.274   3.289   1.330  0.8212  0.3347 -0.0504
  677SOL     H228231   1.324   3.391   1.431  1.8714  0.4017 -0.6366
  678SOL    OH228232   0.546   1.165   6.736 -0.2695 -0.8208  0.1822
  678SOL     H128233   0.604   1.237   6.761  0.0089 -1.0768  0.2692
  678SOL     H228234   0.475   1.167   6.800 -0.3678 -0.4943  0.0630
  679SOL    OH228235   1.938   3.732   7.592  0.3516  0.0137 -0.4019
  679SOL     H128236   1.883   3.759   7.666  0.2540  2.4031 -1.2898
  679SOL     H228237   1.907   3.645   7.569 -0.0928 -0.4760  1.9122
  680SOL    OH228238   6.066   6.766   7.856 -0.4255 -0.5332  0.1205
  680SOL     H128239   6.140   6.729   7.904 -0.7103 -0.4424  0.6319
  680SOL     H228240   6.020   6.690   7.820 -1.0356 -0.6836  1.2106
  681SOL    OH228241   1.788   4.959   0.640 -0.5818  0.2551 -0.2389
  681SOL     H128242   1.845   4.924   0.709 -1.0679  0.4294  0.2545
  681SOL     H228243   1.728   5.017   0.686  1.4416  3.2975 -1.2942
  682SOL    OH228244   5.222   6.960   0.901 -0.1622 -0.4450 -0.0708
  682SOL     H128245   5.210   7.052   0.880 -2.0702  0.0857  3.0253
  682SOL     H228246   5.169   6.913   0.836  0.1529  0.6477 -1.1350
  683SOL    OH228247   0.158   3.701   7.814 -0.6531 -0.7102  0.3714
  683SOL     H128248   0.184   3.667   7.728 -0.4378 -2.1719  0.9958
  683SOL     H228249   0.063   3.708   7.809 -0.6449 -0.8379  0.0224
  684SOL    OH228250   5.843   2.058   0.742 -0.2745 -0.4432  0.7645
  684SOL     H128251   5.860   1.990   0.807  1.1065 -0.8894 -0.0535
  684SOL     H228252   5.865   2.018   0.658  1.5522  1.2910  0.3557
  685SOL    OH228253   7.947   1.499   1.318  0.9488 -0.6020  0.2705
  685SOL     H128254   7.918   1.467   1.232  0.1833 -0.0629  0.3235
  685SOL     H228255   7.955   1.594   1.306 -1.0541 -0.2787  1.3260
  686SOL    OH228256   2.993   0.426   6.293 -0.0539  0.3958 -0.7777
  686SOL     H128257   2.911   0.376   6.293 -0.2501  0.6752  1.0298
  686SOL     H228258   2.964   0.517   6.301  0.4357  0.4041  1.4309
  687SOL    OH228259   1.631   2.416   0.311 -0.0196  0.0523  0.2785
  687SOL     H128260   1.603   2.468   0.386  1.1205 -0.6558  1.2202
  687SOL     H228261   1.689   2.474   0.262  0.5975 -0.0491  0.8827
  688SOL    OH228262   3.432   3.681   7.404  0.4508  0.1737  0.4366
  688SOL     H128263   3.339   3.672   7.427 -0.0181  2.3015 -0.5329
  688SOL     H228264   3.450   3.774   7.411  1.8600  0.1044 -1.8299
  689SOL    OH228265   4.466   5.814   0.168  0.2055 -0.1289  0.0352
  689SOL     H128266   4.449   5.849   0.081 -2.5504  1.3822  1.1177
  689SOL     H228267   4.436   5.724   0.164  0.0895 -0.0666 -0.5885
  690SOL    OH228268   0.258   4.353   8.143  0.1663 -0.5325  0.0059
  690SOL     H128269   0.298   4.306   8.217  1.5355 -0.1118 -0.4395
  690SOL     H228270   0.249   4.443   8.174  0.1896 -0.4856 -0.1244
  691SOL    OH228271   1.570   5.432   0.294  0.0158  0.7391  0.0693
  691SOL     H128272   1.489   5.381   0.285 -0.3657  1.0153  1.7708
  691SOL     H228273   1.570   5.460   0.385  1.1507  2.2555 -0.3910
  692SOL    OH228274   2.689   1.511   7.078 -0.1690 -0.2276 -0.2376
  692SOL     H128275   2.688   1.522   7.173 -2.4783 -2.0342 -0.0104
  692SOL     H228276   2.611   1.558   7.048  0.6316  0.4564 -1.2694
  693SOL    OH228277   4.059   4.046   7.531  0.2820  0.0236 -0.1223
  693SOL     H128278   4.140   4.096   7.540 -0.7454  1.7463 -0.1457
  693SOL     H228279   4.000   4.104   7.482 -1.2997 -0.7884  0.7675
  694SOL    OH228280   1.340   5.899   1.818 -0.2697  0.4775  0.3142
  694SOL     H128281   1.360   5.806   1.805  0.6126  0.7635 -0.3935
  694SOL     H228282   1.244   5.902   1.822 -0.3799 -0.2911 -1.1426
  695SOL    OH228283   5.267   7.691   7.299 -0.1752 -0.5593 -0.1607
  695SOL     H128284   5.206   7.629   7.339 -0.0773 -0.8542 -0.4655
  695SOL     H228285   5.325   7.716   7.371  0.8276 -2.0989 -0.3958
  696SOL    OH228286   7.113   0.589   7.014 -0.3538 -0.0655 -0.2498
  696SOL     H128287   7.075   0.503   6.996 -1.5219  0.2552  0.5793
  696SOL     H228288   7.107   0.599   7.109  1.5948  0.1230 -0.1300
  697SOL    OH228289   7.926   0.758   0.931  0.1137  0.7366 -0.4095
  697SOL     H128290   7.868   0.683   0.944 -2.1632  2.6024  0.4966
  697SOL     H228291   7.936   0.764   0.836 -0.8713  0.1385 -0.5608
  698SOL    OH228292   5.088   1.432   2.398  0.7283  0.1908  0.3425
  698SOL     H128293   5.097   1.342   2.367 -0.8849  0.1781 -0.1462
  698SOL     H228294   4.994   1.442   2.417  0.9846  1.5677  0.9933
  699SOL    OH228295   7.033   0.700   7.301  0.4186 -0.3759  0.4464
  699SOL     H128296   7.013   0.782   7.256 -1.0432  0.0916  1.9307
  699SOL     H228297   6.957   0.685   7.358  0.7483 -2.6625  0.3120
  700SOL    OH228298   4.538   1.797   5.569 -0.6574 -0.2298 -0.2078
  700SOL     H128299   4.592   1.751   5.632 -0.5756  1.7007  1.1747
  700SOL     H228300   4.457   1.746   5.565 -0.8158 -0.1618  1.7622
  701SOL    OH228301   4.982   5.671   7.885 -0.1179 -0.5226 -0.3767
  701SOL     H128302   4.992   5.673   7.980  2.2561  0.0565 -0.5822
  701SOL     H228303   5.026   5.591   7.858 -0.6991 -0.6369 -0.9901
  702SOL    OH228304   2.323   4.292   0.739  0.1373 -0.2679  0.0235
  702SOL     H128305   2.341   4.207   0.700  0.7631  0.6311 -1.7099
  702SOL     H228306   2.407   4.322   0.771 -0.1883 -0.5457  1.1436
  703SOL    OH228307   1.335   2.522   1.629  0.3852 -0.1241 -0.3041
  703SOL     H128308   1.423   2.489   1.609  0.8569  0.2519  1.0891
  703SOL     H228309   1.292   2.449   1.673  0.3021 -0.0005 -0.1836
  704SOL    OH228310   5.724   7.607   5.661 -0.3720 -0.6465 -0.3290
  704SOL     H128311   5.774   7.568   5.589  0.3315  0.3154 -0.3666
  704SOL     H228312   5.766   7.691   5.677 -1.1315 -0.4266  0.5636
  705SOL    OH228313   5.363   0.056   7.148  0.0906  0.2095 -0.0863
  705SOL     H128314   5.449   0.030   7.180 -0.3136 -1.3006 -0.1436
  705SOL     H228315   5.377   0.138   7.101  0.9988  1.4971  2.3765
  706SOL    OH228316   2.583   7.503   0.771  0.0341  0.4110  0.4124
  706SOL     H128317   2.502   7.466   0.805  0.3167  0.2287  0.8922
  706SOL     H228318   2.624   7.432   0.722 -0.7716  0.9179 -1.0082
  707SOL    OH228319   5.766   2.058   7.716 -0.8114  0.2735  0.0991
  707SOL     H128320   5.726   2.063   7.803 -1.1186  1.6245 -0.1089
  707SOL     H228321   5.755   1.967   7.690  0.9199 -0.6044  2.2420
  708SOL    OH228322   1.407   3.824   8.281 -0.1292  0.2483  0.2873
  708SOL     H128323   1.338   3.803   8.218 -0.0558 -0.4542  0.4343
  708SOL     H228324   1.389   3.915   8.307 -1.3603 -0.1262  0.7786
  709SOL    OH228325   2.301   6.596   6.324  0.7749  0.0402  0.1689
  709SOL     H128326   2.305   6.579   6.229  0.7555 -0.2123  0.2128
  709SOL     H228327   2.379   6.553   6.359  1.6550  1.5248  0.0591
  710SOL    OH228328   5.434   0.766   7.558  0.1854  0.2704  0.4310
  710SOL     H128329   5.464   0.708   7.489  1.1034  0.1043  0.9538
  710SOL     H228330   5.346   0.735   7.579  0.4425 -0.5712  0.3022
  711SOL    OH228331   1.794   2.675   7.268 -0.3112 -0.7468 -0.6560
  711SOL     H128332   1.752   2.761   7.281  0.7792  0.0314 -2.1049
  711SOL     H228333   1.722   2.618   7.242 -1.0215 -0.2354  0.1313
  712SOL    OH228334   1.986   3.429   6.658 -0.1183 -0.0014  0.5989
  712SOL     H128335   1.951   3.470   6.737  0.5258 -0.1149  0.9457
  712SOL     H228336   2.052   3.367   6.690  1.3263  1.1276 -0.1062
  713SOL    OH228337   3.629   0.877   6.653  0.0839  0.4783 -0.4846
  713SOL     H128338   3.545   0.915   6.626  0.1528 -0.8046 -2.5961
  713SOL     H228339   3.630   0.790   6.614  2.5319  0.5915 -0.7479
  714SOL    OH228340   5.391   1.200   1.085  0.5703 -0.3821  0.5082
  714SOL     H128341   5.391   1.294   1.106 -0.3719  0.0067 -1.1211
  714SOL     H228342   5.363   1.196   0.994  0.9348 -2.2422  0.4588
  715SOL    OH228343   3.503   5.639   7.770 -0.3687 -0.1092  0.2842
  715SOL     H128344   3.485   5.731   7.749  0.8564 -0.0186 -0.4381
  715SOL     H228345   3.504   5.636   7.865  1.3832  1.0021  0.3190
  716SOL    OH228346   2.546   3.246   6.460 -0.0472 -0.2124 -0.0374
  716SOL     H128347   2.519   3.314   6.522  1.2178  0.8670 -0.6313
  716SOL     H228348   2.594   3.294   6.392 -3.0179 -1.0671 -2.8801
  717SOL    OH228349   2.896   0.223   1.322 -0.2027  0.5141  0.3420
  717SOL     H128350   2.815   0.257   1.283  0.1499  2.2399  1.0759
  717SOL     H228351   2.874   0.133   1.348 -1.2049  0.2214 -1.4686
  718SOL    OH228352   5.695   5.475   7.469  0.2783  0.1161 -0.7584
  718SOL     H128353   5.615   5.490   7.521 -0.2167 -0.0551 -1.4647
  718SOL     H228354   5.667   5.414   7.400  1.4080 -1.2598 -0.0314
  719SOL    OH228355   7.754   4.420   0.608  0.2168 -0.4676 -0.0552
  719SOL     H128356   7.692   4.377   0.667 -1.2549  1.2477 -0.3201
  719SOL     H228357   7.715   4.410   0.522  0.4710  0.3362 -0.2639
  720SOL    OH228358   6.340   1.179   2.520 -0.5736 -0.7632  0.4539
  720SOL     H128359   6.262   1.204   2.569  0.5040 -1.2863  2.4938
  720SOL     H228360   6.316   1.098   2.475 -1.6006 -0.2256  0.0228
  721SOL    OH228361   2.879   3.700   0.790  0.0256  0.4652  0.0751
  721SOL     H128362   2.843   3.612   0.796 -1.1374  0.9395  0.2910
  721SOL     H228363   2.913   3.718   0.877 -1.0914  0.7734  0.4674
  722SOL    OH228364   5.810   2.712   8.200  0.2436 -0.4079  0.3617
  722SOL     H128365   5.730   2.670   8.169  0.6176 -0.6847 -0.2469
  722SOL     H228366   5.784   2.802   8.219 -0.3188 -0.6223  0.6262
  723SOL    OH228367   3.222   6.450   6.147  0.5749 -0.1390  0.0527
  723SOL     H128368   3.172   6.412   6.219  1.4907  0.7937  1.2101
  723SOL     H228369   3.289   6.503   6.190  2.5450 -1.3494 -1.4491
  724SOL    OH228370   2.038   5.714   0.945 -0.6676  0.1624 -0.5432
  724SOL     H128371   1.952   5.709   0.904 -1.3466  1.8246  0.6105
  724SOL     H228372   2.064   5.805   0.934  0.2162  0.0480  0.5658
  725SOL    OH228373   4.551   4.849   2.014  0.7963 -0.2123  0.2411
  725SOL     H128374   4.483   4.838   2.080  0.1758 -0.8897 -0.5127
  725SOL     H228375   4.588   4.936   2.033  0.2315 -0.1541  1.1080
  726SOL    OH228376   2.967   2.027   0.583  0.6548 -1.0249 -0.5128
  726SOL     H128377   2.915   1.950   0.604 -1.2892  0.2577 -0.5295
  726SOL     H228378   3.053   2.009   0.622 -0.1500 -2.6436  0.5685
  727SOL    OH228379   3.012   2.031   1.263 -0.0979 -0.1837 -0.1488
  727SOL     H128380   2.940   1.983   1.223 -0.4809  0.7865 -0.6274
  727SOL     H228381   3.088   2.013   1.207  0.0274 -1.1472  0.3162
  728SOL    OH228382   4.907   4.766   0.291  0.5062  0.5405  0.5495
  728SOL     H128383   4.871   4.721   0.214 -1.2483  2.2644  0.3251
  728SOL     H228384   4.910   4.858   0.266  1.1347  0.9549  2.1026
  729SOL    OH228385   6.544   4.850   7.286 -0.0770 -0.1586 -0.0811
  729SOL     H128386   6.551   4.887   7.198  0.7193 -0.3321 -0.0920
  729SOL     H228387   6.525   4.757   7.272  1.2215 -0.4315 -0.0882
  730SOL    OH228388   0.388   2.901   0.962 -0.1398  0.7073  0.2105
  730SOL     H128389   0.430   2.946   1.035  0.1804  2.2322 -0.8970
  730SOL     H228390   0.445   2.918   0.887 -0.2119 -1.2384 -0.3172
  731SOL    OH228391   1.693   6.179   1.859 -0.5453 -0.0168 -0.0825
  731SOL     H128392   1.703   6.216   1.947  0.5981 -1.4684  0.4220
  731SOL     H228393   1.756   6.226   1.805  0.3837 -0.7047  0.3951
  732SOL    OH228394   3.151   1.055   1.718  0.9873  0.5965 -0.7182
  732SOL     H128395   3.143   0.973   1.766 -1.7994  0.3094 -1.5733
  732SOL     H228396   3.229   1.044   1.663  1.4971 -0.8694  0.2786
  733SOL    OH228397   3.268   7.023   8.028  0.1458  0.0409 -0.1129
  733SOL     H128398   3.279   6.938   7.985 -0.4932  0.6533 -1.5397
  733SOL     H228399   3.175   7.024   8.053  0.2974  0.0708  0.4427
  734SOL    OH228400   3.728   1.037   7.583  0.2112 -0.2278 -0.2519
  734SOL     H128401   3.729   1.105   7.650  0.6243 -0.7381  0.2622
  734SOL     H228402   3.640   1.042   7.545  0.8276  1.8374 -1.5126
  735SOL    OH228403   7.712   6.796   8.194 -0.4308  0.4576  0.2604
  735SOL     H128404   7.758   6.760   8.118  0.5803  0.4755  0.8649
  735SOL     H228405   7.666   6.721   8.232 -0.3638  0.3116  0.0550
  736SOL    OH228406   4.011   2.721   1.745 -0.6245 -0.3589  0.3073
  736SOL     H128407   3.937   2.732   1.685 -0.4931 -1.4753 -0.0586
  736SOL     H228408   4.086   2.703   1.688  0.1104  1.5294  0.6184
  737SOL    OH228409   3.602   6.955   0.721  0.1758 -0.0202 -0.1637
  737SOL     H128410   3.605   6.928   0.813  0.6211  1.0336  0.1294
  737SOL     H228411   3.592   7.050   0.724 -1.3177 -0.1327 -1.2013
  738SOL    OH228412   6.418   2.537   6.309 -0.1437  0.4540  0.1925
  738SOL     H128413   6.463   2.560   6.390 -2.1488  0.7943  1.2390
  738SOL     H228414   6.333   2.503   6.337 -0.6000 -0.1026 -1.7397
  739SOL    OH228415   5.670   3.713   2.075  0.2380  0.0147  0.4773
  739SOL     H128416   5.652   3.805   2.091 -1.3091 -0.0654 -0.7084
  739SOL     H228417   5.652   3.671   2.160 -1.4102  0.4887  0.3909
  740SOL    OH228418   6.407   7.723   6.915 -0.0317  0.6272 -0.1906
  740SOL     H128419   6.329   7.671   6.892  0.7481 -0.1832 -1.0255
  740SOL     H228420   6.382   7.813   6.893 -1.4251  0.6579  1.3667
  741SOL    OH228421   0.649   3.290   0.922  0.1695 -0.1502 -0.0009
  741SOL     H128422   0.653   3.285   1.017  0.6821  0.3642  0.0054
  741SOL     H228423   0.710   3.223   0.891  1.3889  0.9241  0.0456
  742SOL    OH228424   5.733   4.571   1.604  0.0429  0.3711  0.5196
  742SOL     H128425   5.829   4.581   1.604  0.1927 -0.9804 -0.1307
  742SOL     H228426   5.719   4.483   1.638 -1.1433  1.8513  4.0846
  743SOL    OH228427   5.164   0.239   6.974 -0.0337  0.1043 -0.1091
  743SOL     H128428   5.120   0.322   6.955  0.5436  0.2903 -0.6259
  743SOL     H228429   5.254   0.264   6.996 -0.3126 -0.2239  1.4886
  744SOL    OH228430   3.455   1.917   1.624  0.4183  0.3562 -0.0041
  744SOL     H128431   3.365   1.891   1.646  0.5254  1.1017  1.4209
  744SOL     H228432   3.488   1.846   1.570 -0.9636 -0.0246 -0.3714
  745SOL    OH228433   5.236   5.150   0.978  0.1169  0.6751 -0.4991
  745SOL     H128434   5.165   5.212   0.998 -0.3486 -0.9397  3.2490
  745SOL     H228435   5.315   5.203   0.983 -0.5017  1.6586 -0.7483
  746SOL    OH228436   3.990   7.357   7.270  0.0282  0.3350  0.7031
  746SOL     H128437   4.081   7.336   7.249 -0.2607 -1.1019  0.8076
  746SOL     H228438   3.957   7.278   7.315 -0.6613  1.6162  2.5262
  747SOL    OH228439   1.267   7.614   6.640  0.3995 -0.4206  0.2069
  747SOL     H128440   1.178   7.592   6.667 -0.5226  3.8716  0.9252
  747SOL     H228441   1.319   7.604   6.720  0.0031 -0.0437  0.5148
  748SOL    OH228442   3.574   7.874   1.910  0.2352  0.1655  0.2644
  748SOL     H128443   3.506   7.927   1.869 -0.5663 -1.4434 -0.4962
  748SOL     H228444   3.636   7.855   1.839  0.2389 -0.3731  0.4112
  749SOL    OH228445   1.556   4.300   0.764 -0.1609  0.0313  0.2641
  749SOL     H128446   1.635   4.331   0.807  0.2416 -1.7349  0.8605
  749SOL     H228447   1.507   4.255   0.833 -0.1125 -1.7216 -0.8136
  750SOL    OH228448   2.494   4.701   1.461 -0.4493  0.0576  0.2922
  750SOL     H128449   2.542   4.784   1.458  0.1063 -0.2862 -0.5524
  750SOL     H228450   2.563   4.634   1.456 -0.9499 -0.4439  0.0615
  751SOL    OH228451   6.986   7.689   5.885  0.0330 -0.1093  0.2252
  751SOL     H128452   6.917   7.656   5.943  0.2014  2.5555  2.0056
  751SOL     H228453   6.940   7.745   5.823  0.4788  1.1377  1.0006
  752SOL    OH228454   5.345   1.971   1.377 -0.0197 -0.0178 -0.5997
  752SOL     H128455   5.315   2.060   1.358  0.0509 -0.3728 -2.4298
  752SOL     H228456   5.313   1.954   1.466 -2.2273  0.9129 -1.1697
  753SOL    OH228457   1.773   0.904   7.470 -0.3115  0.0584  0.1254
  753SOL     H128458   1.701   0.904   7.533  0.7946  1.0864  1.4273
  753SOL     H228459   1.849   0.876   7.522  0.1731 -1.3531 -1.3040
  754SOL    OH228460   0.624   1.949   1.872  0.3305  0.5143  0.6992
  754SOL     H128461   0.667   1.873   1.832  1.3030  1.4673 -0.1014
  754SOL     H228462   0.680   1.972   1.946  0.9827  1.4648 -0.0636
  755SOL    OH228463   4.406   2.083   1.231 -0.6922  0.4824  0.0293
  755SOL     H128464   4.375   2.156   1.284 -0.0283 -2.2962  4.6018
  755SOL     H228465   4.497   2.070   1.258 -0.9790 -2.3783 -0.1755
  756SOL    OH228466   1.756   2.205   7.612  0.5222 -0.5686  0.3375
  756SOL     H128467   1.779   2.207   7.705  0.3616  1.1251  0.3607
  756SOL     H228468   1.836   2.233   7.567 -0.2549  1.5267  0.1799
  757SOL    OH228469   7.680   4.607   7.376 -0.1960  0.2890 -0.1339
  757SOL     H128470   7.603   4.662   7.367 -2.1061 -2.2643  0.2322
  757SOL     H228471   7.702   4.583   7.286  1.5896  2.8084 -0.4394
  758SOL    OH228472   7.585   5.749   7.868 -0.6083 -0.1295 -0.0925
  758SOL     H128473   7.670   5.710   7.850 -0.0253  0.4542  1.3045
  758SOL     H228474   7.526   5.709   7.805  0.3153 -2.0071  0.2074
  759SOL    OH228475   7.200   1.265   6.414 -0.5467 -0.4577  0.4667
  759SOL     H128476   7.185   1.342   6.469  0.8492 -0.3667  0.7474
  759SOL     H228477   7.275   1.289   6.360 -1.2963 -0.9140 -0.8121
  760SOL    OH228478   3.619   6.649   1.144  0.3525 -0.1801  0.6000
  760SOL     H128479   3.681   6.625   1.214 -0.9284  1.4575  2.3403
  760SOL     H228480   3.533   6.648   1.187 -0.2441  2.8788 -0.4012
  761SOL    OH228481   4.403   1.432   6.071 -0.3971 -0.0345 -0.7193
  761SOL     H128482   4.423   1.512   6.024  1.7421 -1.2893 -2.0255
  761SOL     H228483   4.430   1.450   6.161 -0.9263  1.0583 -0.7678
  762SOL    OH228484   1.376   3.175   0.687  0.2610 -0.1378  0.6312
  762SOL     H128485   1.351   3.083   0.687  0.3552 -0.1660 -0.0872
  762SOL     H228486   1.433   3.184   0.763  0.3676 -0.7092  0.6212
  763SOL    OH228487   7.293   0.350   1.068  0.1680  0.3935 -0.1248
  763SOL     H128488   7.384   0.331   1.049 -0.0494  1.0894 -1.8681
  763SOL     H228489   7.290   0.360   1.163  1.6819 -0.7754  0.0589
  764SOL    OH228490   2.014   2.584   2.322 -0.0479 -0.7107 -0.1808
  764SOL     H128491   2.052   2.531   2.252 -1.4878 -0.8288 -0.8878
  764SOL     H228492   2.037   2.537   2.402  0.7463 -1.1109 -0.6262
  765SOL    OH228493   7.147   5.114   0.181  0.7987  0.2903  0.6993
  765SOL     H128494   7.202   5.191   0.166 -1.5416  2.4148  2.7086
  765SOL     H228495   7.059   5.149   0.193 -0.5541 -2.8257  0.3767
  766SOL    OH228496   3.432   1.877   8.201 -0.2004  0.1147  0.0715
  766SOL     H128497   3.485   1.815   8.150  0.6658  0.6550  0.3055
  766SOL     H228498   3.382   1.822   8.262  0.8226 -0.3422  0.5125
  767SOL    OH228499   2.673   5.832   7.263  0.2012 -0.3220  0.6203
  767SOL     H128500   2.587   5.859   7.295 -0.2318 -2.4846  1.4035
  767SOL     H228501   2.661   5.740   7.236  1.2601  0.5401 -3.1089
  768SOL    OH228502   1.487   6.685   7.042  0.6766  0.4809 -0.6379
  768SOL     H128503   1.522   6.689   7.131  0.4807  0.7286 -0.5714
  768SOL     H228504   1.564   6.670   6.986  0.8975  1.0832 -0.4992
  769SOL    OH228505   6.272   1.344   6.530  0.6972  0.3526  0.0077
  769SOL     H128506   6.221   1.394   6.466 -1.1159  0.8303  1.7969
  769SOL     H228507   6.269   1.254   6.497  2.4982  1.0909 -2.2784
  770SOL    OH228508   7.812   1.725   8.236 -0.2026 -0.7429 -0.3841
  770SOL     H128509   7.771   1.731   8.150 -2.1272  0.8958  0.6199
  770SOL     H228510   7.747   1.760   8.296  0.9237 -2.3508  1.8200
  771SOL    OH228511   2.617   5.079   0.912  0.0413 -0.3334 -0.1596
  771SOL     H128512   2.632   5.151   0.850  0.7609  0.1309  0.5469
  771SOL     H228513   2.601   5.003   0.856 -0.3325  0.2902 -0.9141
  772SOL    OH228514   0.377   7.332   1.815 -0.4082 -0.5722 -0.2275
  772SOL     H128515   0.438   7.405   1.799 -0.8705 -0.3149 -0.8638
  772SOL     H228516   0.315   7.367   1.879 -0.1929 -0.6539  0.0240
  773SOL    OH228517   0.006   4.379   0.326  0.5828  0.5988  0.2695
  773SOL     H128518   0.101   4.368   0.333  0.9918  2.8488 -1.2988
  773SOL     H228519  -0.019   4.429   0.404  0.5149 -0.8710  1.2042
  774SOL    OH228520   2.087   4.221   0.188 -1.0599 -0.3182  0.2941
  774SOL     H128521   2.124   4.214   0.276 -0.2467  1.0979  0.0738
  774SOL     H228522   2.013   4.160   0.189  0.5335 -2.3060  1.1096
  775SOL    OH228523   7.566   7.803   8.113 -0.1696  0.1844 -0.4556
  775SOL     H128524   7.563   7.899   8.110 -0.0973  0.1827 -0.6540
  775SOL     H228525   7.660   7.782   8.110 -0.1741  0.1161 -0.0722
  776SOL    OH228526   7.343   7.740   7.786 -0.0491  0.9784 -0.1454
  776SOL     H128527   7.306   7.813   7.835  1.4722  1.0390  0.9850
  776SOL     H228528   7.420   7.715   7.837 -0.8437 -1.7595 -0.2127
  777SOL    OH228529   5.371   0.554   6.709 -0.4677  0.1112 -0.1527
  777SOL     H128530   5.442   0.505   6.750 -0.4095  0.6506  0.4141
  777SOL     H228531   5.414   0.629   6.668 -0.6425  0.1478 -0.2698
  778SOL    OH228532   2.630   0.095   1.948 -0.2472  0.1661  0.4224
  778SOL     H128533   2.618   0.008   1.987  1.0107 -1.2527 -2.2478
  778SOL     H228534   2.542   0.132   1.945 -0.8955 -1.2959  0.9315
  779SOL    OH228535   0.676   6.255   6.396 -0.0085  0.0135 -0.0601
  779SOL     H128536   0.692   6.346   6.421 -0.3403  0.4601 -1.4319
  779SOL     H228537   0.672   6.257   6.300 -0.1099 -1.4302 -0.0931
  780SOL    OH228538   1.016   7.030   6.470  0.9924 -0.6429 -0.1027
  780SOL     H128539   1.077   7.098   6.500  0.3208 -0.9435  2.0608
  780SOL     H228540   0.930   7.069   6.481  0.6223 -1.7028  0.8165
  781SOL    OH228541   5.822   6.834   1.950 -0.2268 -0.5864 -0.3383
  781SOL     H128542   5.747   6.809   2.003 -1.3874  0.6288 -1.3396
  781SOL     H228543   5.895   6.841   2.012 -1.4467  0.3808  1.0125
  782SOL    OH228544   6.892   2.657   0.320 -0.3800  0.0806  0.4121
  782SOL     H128545   6.867   2.749   0.322  0.6385  0.5014 -3.3800
  782SOL     H228546   6.983   2.657   0.292 -0.7922 -2.1420 -1.0100
  783SOL    OH228547   1.668   5.620   1.675 -0.7758 -0.3076 -0.0714
  783SOL     H128548   1.626   5.621   1.589  1.1727 -0.2369 -1.0574
  783SOL     H228549   1.762   5.614   1.656 -0.1397  2.0992  1.9867
  784SOL    OH228550   3.371   0.608   1.255 -0.5938  0.3716 -0.2843
  784SOL     H128551   3.419   0.545   1.309 -0.0656  1.1046  0.1080
  784SOL     H228552   3.284   0.613   1.296 -0.0663  1.2389  0.7670
  785SOL    OH228553   1.428   6.600   1.366  0.2481  0.3602  0.8943
  785SOL     H128554   1.450   6.508   1.356  0.4032  0.3774  1.0607
  785SOL     H228555   1.333   6.604   1.357  0.3591  0.3535 -0.3584
  786SOL    OH228556   5.845   2.831   7.179  0.5439  0.4332  0.1954
  786SOL     H128557   5.933   2.816   7.146  0.4116 -0.0928  0.0793
  786SOL     H228558   5.839   2.779   7.259  0.8711  1.7301  1.0809
  787SOL    OH228559   7.430   7.242   7.434  0.2336  0.0552  0.1032
  787SOL     H128560   7.417   7.320   7.488 -0.2760  1.5294 -2.0899
  787SOL     H228561   7.348   7.232   7.386  0.8348 -0.9644 -0.7350
  788SOL    OH228562   3.840   3.429   1.027 -0.1501 -0.1295  0.2379
  788SOL     H128563   3.781   3.497   0.994 -0.3256 -0.8651 -0.9707
  788SOL     H228564   3.917   3.435   0.971 -0.2232 -1.0147  0.0475
  789SOL    OH228565   3.576   7.588   6.500  0.6903 -0.0330 -0.3059
  789SOL     H128566   3.541   7.610   6.586  2.6010 -0.4306  0.6003
  789SOL     H228567   3.504   7.543   6.456 -1.1524  2.3521  0.1239
  790SOL    OH228568   1.616   5.825   0.548 -0.2796 -0.2596  0.2040
  790SOL     H128569   1.626   5.749   0.607  2.3010 -0.2796 -0.1814
  790SOL     H228570   1.608   5.786   0.461  1.4424 -0.1137 -0.0378
  791SOL    OH228571   0.702   6.010   7.002 -0.3251 -0.5742  0.6275
  791SOL     H128572   0.756   6.058   7.066  0.2677 -1.3116  0.6912
  791SOL     H228573   0.734   5.920   7.007 -0.9674 -0.8401  0.0131
  792SOL    OH228574   3.457   6.525   7.195  0.1201 -0.0010 -0.4434
  792SOL     H128575   3.488   6.459   7.256 -0.3558 -0.8182 -1.0839
  792SOL     H228576   3.528   6.590   7.193  0.0687  0.1277  1.0902
  793SOL    OH228577   7.232   1.802   0.076  0.4398  0.0764  0.3148
  793SOL     H128578   7.315   1.844   0.096 -0.0156  1.1358  0.0406
  793SOL     H228579   7.245   1.763  -0.011  0.0620  1.9131 -0.6059
  794SOL    OH228580   4.833   2.231   0.699  0.0372  0.6211 -0.3061
  794SOL     H128581   4.793   2.229   0.612  0.0039 -0.7358 -0.2692
  794SOL     H228582   4.913   2.180   0.690 -1.1619 -1.5400  1.0247
  795SOL    OH228583   1.144   7.085   7.087  0.9508 -0.1558 -0.3345
  795SOL     H128584   1.137   7.112   7.179 -0.6083 -1.0153 -0.1763
  795SOL     H228585   1.054   7.061   7.063  1.1098  1.2359 -2.4484
  796SOL    OH228586   4.877   3.830   2.550  0.1748  0.1522 -0.0769
  796SOL     H128587   4.828   3.879   2.617 -0.2117 -1.8333  1.1436
  796SOL     H228588   4.811   3.806   2.485  0.3935  1.3707 -0.7560
  797SOL    OH228589   2.469   0.494   7.189 -0.2130 -0.3039  0.1968
  797SOL     H128590   2.388   0.444   7.203  1.0462 -2.2345  0.7995
  797SOL     H228591   2.505   0.505   7.277  0.0401  0.8010 -0.0446
  798SOL    OH228592   4.262   0.467   1.030  0.2657  0.1123 -0.2659
  798SOL     H128593   4.326   0.533   1.058  1.2488 -0.8515 -0.2375
  798SOL     H228594   4.311   0.385   1.027 -0.2675 -0.1514 -3.0073
  799SOL    OH228595   0.166   2.359   1.455 -0.5706  0.0146 -0.3669
  799SOL     H128596   0.134   2.428   1.395  1.2845  1.7303  0.5616
  799SOL     H228597   0.086   2.326   1.497 -1.5894  1.0361 -1.4390
  800SOL    OH228598   7.090   3.148   6.939  0.3186  0.4416  0.0561
  800SOL     H128599   7.175   3.141   6.982  0.6062  1.3144 -0.3596
  800SOL     H228600   7.055   3.232   6.970  0.6066  1.1603 -1.5541
  801SOL    OH228601   0.148   3.719   6.682  0.2973  0.5704  0.2511
  801SOL     H128602   0.163   3.666   6.761  1.5462 -0.1675 -0.4634
  801SOL     H228603   0.139   3.808   6.715  1.3855  0.3480  1.1941
  802SOL    OH228604   0.881   3.966   1.904 -0.5314 -0.2761  0.4215
  802SOL     H128605   0.843   3.916   1.832 -1.1609  1.0904 -0.2035
  802SOL     H228606   0.960   3.917   1.927 -1.2196 -1.6469 -0.0687
  803SOL    OH228607   0.687   2.274   7.303 -0.3600 -0.0396  0.0217
  803SOL     H128608   0.624   2.205   7.322 -0.2293 -0.4435 -0.9889
  803SOL     H228609   0.633   2.351   7.284 -0.4936  0.5247  2.4758
  804SOL    OH228610   3.904   2.478   7.668 -0.0942  0.0476 -0.0383
  804SOL     H128611   3.914   2.389   7.702 -1.5814 -0.2230 -0.2698
  804SOL     H228612   3.934   2.473   7.577 -1.0162 -0.4259 -0.3204
  805SOL    OH228613   4.215   2.608   7.968  0.1267 -0.1358 -0.6488
  805SOL     H128614   4.269   2.653   8.033  1.0827 -1.3196 -0.6126
  805SOL     H228615   4.182   2.678   7.912 -0.2687  0.8425  0.7784
  806SOL    OH228616   1.480   4.663   6.520  0.4961 -0.0798  0.2762
  806SOL     H128617   1.435   4.633   6.442  1.2070 -0.0828 -0.1382
  806SOL     H228618   1.505   4.753   6.501 -1.9878  0.9564  1.6729
  807SOL    OH228619   2.737   7.688  -0.011  0.8876 -0.6952 -0.8511
  807SOL     H128620   2.690   7.645   0.060  0.4875  0.4151 -0.4438
  807SOL     H228621   2.829   7.685   0.015  0.4147  3.2185  1.6461
  808SOL    OH228622   1.186   2.407   6.362  0.3501 -0.4292 -0.5770
  808SOL     H128623   1.104   2.357   6.366  0.3099 -0.2724  0.5312
  808SOL     H228624   1.246   2.360   6.419  0.9644 -0.4046 -1.2008
  809SOL    OH228625   6.382   6.232   0.244  0.1222  0.1908 -0.3928
  809SOL     H128626   6.475   6.252   0.243 -0.5898  4.0426  0.6707
  809SOL     H228627   6.350   6.261   0.158  0.0793 -2.5025 -1.3534
  810SOL    OH228628   3.463   4.188   7.407  0.0082 -0.6722  0.1433
  810SOL     H128629   3.436   4.107   7.365 -0.5342 -0.2070 -0.4124
  810SOL     H228630   3.394   4.251   7.385  0.6282  0.0464  0.2133
  811SOL    OH228631   7.026   4.906   0.325  0.1273  0.0558  0.0461
  811SOL     H128632   7.021   4.833   0.265  2.1626 -1.9068  2.1542
  811SOL     H228633   7.093   4.964   0.288  2.1174 -1.6493  0.8820
  812SOL    OH228634   0.861   4.923   6.305  0.3610  0.0697 -0.6378
  812SOL     H128635   0.940   4.935   6.357  0.5879  0.6730 -1.1146
  812SOL     H228636   0.882   4.962   6.220  0.5018 -2.2061 -1.6804
  813SOL    OH228637   2.127   4.745   5.464 -0.5625 -0.3161  0.3446
  813SOL     H128638   2.037   4.737   5.434  0.0884 -1.6777 -1.3298
  813SOL     H228639   2.154   4.655   5.484  0.6227 -0.0070  0.2082
  814SOL    OH228640   3.491   5.528   8.201 -0.2790  0.5097  0.0043
  814SOL     H128641   3.507   5.603   8.143  0.6125  0.6037  0.3584
  814SOL     H228642   3.408   5.491   8.170 -0.0444  0.8306 -1.0354
  815SOL    OH228643   1.258   1.098   7.462  0.0590  0.0629  0.0438
  815SOL     H128644   1.226   1.067   7.547 -0.6955  0.2990 -0.1557
  815SOL     H228645   1.235   1.191   7.460 -0.4615 -0.0836 -0.6804
  816SOL    OH228646   2.821   6.935   7.738  1.4208 -0.2975 -0.2025
  816SOL     H128647   2.862   6.995   7.676  1.4089  1.2072  1.2154
  816SOL     H228648   2.862   6.956   7.822 -0.4444 -0.4823  0.7690
  817SOL    OH228649   7.183   0.059   2.176 -0.1081  0.4020 -0.3371
  817SOL     H128650   7.267   0.104   2.188 -0.0817  0.6322 -1.4079
  817SOL     H228651   7.204  -0.033   2.190  0.1250  0.5643  0.4030
  818SOL    OH228652   2.505   4.315   7.539 -0.0754 -0.1701  0.4747
  818SOL     H128653   2.411   4.306   7.556 -0.4046 -1.9932 -2.0481
  818SOL     H228654   2.511   4.348   7.450  1.6833  0.5718  0.8403
  819SOL    OH228655   2.366   1.855   1.179  0.8759 -0.4455  0.0014
  819SOL     H128656   2.312   1.788   1.137 -0.3910 -0.6745  1.9377
  819SOL     H228657   2.325   1.938   1.153  2.0376 -0.4241 -1.8345
  820SOL    OH228658   2.716   7.344   8.232  0.1079 -0.4278  0.2165
  820SOL     H128659   2.710   7.261   8.279  0.0616 -1.3055 -1.2990
  820SOL     H228660   2.809   7.369   8.238 -0.0802  0.0153  1.6346
  821SOL    OH228661   7.489   0.771   1.452 -0.2343  0.4803 -0.6893
  821SOL     H128662   7.429   0.704   1.422 -0.5488  0.7449 -0.6533
  821SOL     H228663   7.566   0.762   1.396  0.3246 -0.8699  0.2741
  822SOL    OH228664   4.959   5.909   1.355  0.2857 -0.2568 -0.4012
  822SOL     H128665   4.915   5.859   1.424  0.0841 -1.6723 -1.5231
  822SOL     H228666   5.051   5.885   1.364  0.2718 -0.3678 -0.5476
  823SOL    OH228667   0.590   0.567   0.747  0.8412 -0.5507 -0.3982
  823SOL     H128668   0.675   0.558   0.790  1.1754  0.1188 -0.8950
  823SOL     H228669   0.526   0.544   0.814  1.3646  0.2347  0.3919
  824SOL    OH228670   0.039   3.656   6.087 -0.3783 -0.5579  0.7081
  824SOL     H128671  -0.049   3.619   6.077  0.3966 -2.4987  0.8360
  824SOL     H228672   0.094   3.601   6.031  0.8912  0.1313  1.2604
  825SOL    OH228673   1.232   4.394   7.496  0.0394 -0.1489  1.0440
  825SOL     H128674   1.220   4.473   7.443 -1.3371  0.1182  1.7323
  825SOL     H228675   1.156   4.340   7.476  0.4036 -0.8077  1.4320
  826SOL    OH228676   0.946   0.617   0.859  0.5142 -0.1303 -0.1638
  826SOL     H128677   0.965   0.663   0.940  1.0623  0.0577 -0.3970
  826SOL     H228678   1.021   0.635   0.803 -0.3906  0.7011 -1.1393
  827SOL    OH228679   3.309   6.405   7.526 -0.0220  0.1578 -0.2481
  827SOL     H128680   3.236   6.410   7.464 -1.4657 -0.4151  1.3425
  827SOL     H228681   3.309   6.313   7.554  0.3320  0.5044  0.8965
  828SOL    OH228682   3.849   6.835   2.243  0.9436 -0.3226 -0.4542
  828SOL     H128683   3.837   6.873   2.329  1.0646  0.2275 -0.6772
  828SOL     H228684   3.771   6.782   2.228  1.2620 -1.0104  0.2959
  829SOL    OH228685   4.340   2.924   7.013  0.0916 -0.6342 -0.2768
  829SOL     H128686   4.334   2.858   7.082  0.4070 -0.7656 -0.3764
  829SOL     H228687   4.368   3.004   7.059  0.5239 -0.7794 -0.2919
  830SOL    OH228688   6.608   2.678   0.771 -0.6624  0.4559 -0.5849
  830SOL     H128689   6.564   2.632   0.843 -0.4620  1.4532  0.1873
  830SOL     H228690   6.618   2.768   0.803  0.5438  0.6121 -1.3683
  831SOL    OH228691   0.611   0.824   0.364 -0.5656  0.6857  0.7561
  831SOL     H128692   0.591   0.777   0.283 -0.0456 -1.5175  1.8620
  831SOL     H228693   0.645   0.909   0.335  0.7469 -0.5129 -1.3516
  832SOL    OH228694   3.999   5.231   7.968  0.4360 -0.0034  0.0542
  832SOL     H128695   3.952   5.210   7.887  0.5773 -0.2449  0.0349
  832SOL     H228696   3.999   5.150   8.018 -0.5772  0.4180  0.7665
  833SOL    OH228697   5.419   5.029   6.531 -0.5104  0.1990  0.1520
  833SOL     H128698   5.411   4.960   6.465 -0.2505  0.8180 -0.5376
  833SOL     H228699   5.513   5.043   6.540 -0.6076  2.1788 -1.5501
  834SOL    OH228700   7.835   3.657   6.599 -0.0072  0.3877  0.1804
  834SOL     H128701   7.903   3.723   6.607  0.4120 -0.0466  0.1853
  834SOL     H228702   7.882   3.574   6.592 -0.5188  0.1313 -0.2802
  835SOL    OH228703   7.212   0.664   5.839  0.4577  0.0730  0.0799
  835SOL     H128704   7.145   0.602   5.809  3.0792 -2.5326 -0.5415
  835SOL     H228705   7.228   0.640   5.930 -1.4502  2.5877  1.1570
  836SOL    OH228706   0.210   4.214   0.381  0.2961 -0.1731  0.2758
  836SOL     H128707   0.283   4.221   0.443 -1.0276  0.9252  1.7557
  836SOL     H228708   0.144   4.163   0.428 -0.9844  1.2289  0.0391
  837SOL    OH228709   3.279   7.085   0.926  0.4740  0.0377 -0.2180
  837SOL     H128710   3.308   7.028   0.997 -0.0738 -1.9090 -1.5006
  837SOL     H228711   3.359   7.106   0.878  0.8003  1.0901  0.7803
  838SOL    OH228712   6.894   1.307   8.103 -0.0416 -0.4024 -0.1750
  838SOL     H128713   6.948   1.231   8.122 -0.0239 -0.7209 -1.4745
  838SOL     H228714   6.835   1.314   8.178  0.0215 -1.6378 -0.0096
  839SOL    OH228715   5.528   5.546   0.248  0.2136  0.1965  0.1610
  839SOL     H128716   5.553   5.631   0.284 -0.0728  0.8269 -1.0967
  839SOL     H228717   5.467   5.510   0.312 -0.2026  1.2468  0.3705
  840SOL    OH228718   6.889   0.907   7.191  0.4754 -0.1976  0.0752
  840SOL     H128719   6.923   0.997   7.186 -0.7269  0.1455 -2.8446
  840SOL     H228720   6.796   0.918   7.211 -0.0240 -0.6849 -1.8632
  841SOL    OH228721   7.672   1.210   2.846  0.6985  0.2763 -0.4878
  841SOL     H128722   7.734   1.266   2.891  0.3758 -0.2455  0.6242
  841SOL     H228723   7.717   1.126   2.835  0.7911  0.4175 -1.1573
  842SOL    OH228724   0.170   0.612   1.644  0.1546 -0.0269 -0.4623
  842SOL     H128725   0.126   0.696   1.633  1.6996  1.1767  2.0745
  842SOL     H228726   0.259   0.627   1.610  1.1100  0.0553  1.9945
  843SOL    OH228727   4.686   5.798   8.009  0.0689 -0.5417  0.0014
  843SOL     H128728   4.690   5.703   8.011 -1.9110 -0.6293  0.5884
  843SOL     H228729   4.595   5.818   7.989  0.4911  1.2419 -0.2363
  844SOL    OH228730   1.799   3.669   6.417  0.0257  0.2403  0.4738
  844SOL     H128731   1.831   3.726   6.347 -0.0733  0.4540  0.6011
  844SOL     H228732   1.757   3.729   6.479  0.2946  0.0741  0.8174
  845SOL    OH228733   1.189   0.696   1.597  0.5623 -0.0923 -0.0691
  845SOL     H128734   1.212   0.618   1.547 -0.1436 -0.2609 -0.1407
  845SOL     H228735   1.190   0.767   1.534  0.6327 -0.1463 -0.1273
  846SOL    OH228736   4.989   5.063   0.449  0.4434  0.2607 -0.0875
  846SOL     H128737   4.897   5.089   0.454  0.1117 -0.8880  0.0047
  846SOL     H228738   5.000   4.999   0.519  1.3916  0.6098  0.0947
  847SOL    OH228739   7.568   5.838   6.890  0.1056  0.4295  0.6348
  847SOL     H128740   7.535   5.780   6.958  0.1458  1.6210  1.6971
  847SOL     H228741   7.662   5.844   6.908 -0.0414  1.5379  1.1153
  848SOL    OH228742   0.993   6.040   8.130 -0.1039  0.2285 -0.4685
  848SOL     H128743   0.962   6.098   8.060 -0.8266  1.4000  0.7951
  848SOL     H228744   0.916   6.028   8.186  0.3020 -1.2014 -0.2093
  849SOL    OH228745   7.342   6.863   6.902  0.6359  0.1678 -0.2234
  849SOL     H128746   7.352   6.865   6.807  0.1764 -1.2527 -0.3139
  849SOL     H228747   7.421   6.819   6.934  0.6958  0.4639  0.0460
  850SOL    OH228748   4.569   4.439   5.851 -0.1929  0.0891 -0.2412
  850SOL     H128749   4.555   4.347   5.832  2.6049 -0.2630 -0.7410
  850SOL     H228750   4.591   4.442   5.944  0.1338  0.2279 -0.3243
  851SOL    OH228751   6.970   2.760   1.233  1.2339  0.0012 -0.1454
  851SOL     H128752   6.999   2.671   1.215 -0.6049 -0.8747  1.1542
  851SOL     H228753   6.903   2.751   1.300  0.8889  2.3542 -0.1270
  852SOL    OH228754   1.622   7.396   1.690 -0.0416 -0.2405 -0.3957
  852SOL     H128755   1.570   7.470   1.660  1.9188  0.6308 -1.7257
  852SOL     H228756   1.562   7.346   1.746 -1.8826  1.4365 -0.8094
  853SOL    OH228757   2.070   6.470   6.462 -0.4547 -0.1467 -0.1465
  853SOL     H128758   2.154   6.488   6.420 -0.0317 -1.8055 -0.0493
  853SOL     H228759   2.094   6.425   6.543 -1.4030  0.2019  0.3327
  854SOL    OH228760   7.931   6.032   7.654 -0.5026  0.4410  0.0671
  854SOL     H128761   7.971   6.115   7.681  0.4069  0.1522 -0.3720
  854SOL     H228762   7.923   5.982   7.735 -0.1984  0.5915  0.1897
  855SOL    OH228763   2.837   2.247   0.450  0.2069  0.7037  0.5498
  855SOL     H128764   2.783   2.216   0.377  1.8368  1.7669 -1.1808
  855SOL     H228765   2.872   2.167   0.489 -0.1071  0.1354 -0.3009
  856SOL    OH228766   5.517   5.104   8.149  0.5744 -0.3564  0.3233
  856SOL     H128767   5.482   5.153   8.224  1.0562 -0.0765  0.3739
  856SOL     H228768   5.446   5.047   8.122  0.8521 -1.4632  1.8679
  857SOL    OH228769   4.741   4.039   1.048 -0.3928  0.3443 -0.3098
  857SOL     H128770   4.805   4.106   1.073  0.1226 -0.1953 -0.1681
  857SOL     H228771   4.662   4.062   1.096 -0.6355  1.6339 -1.3074
  858SOL    OH228772   0.490   1.379   7.588 -0.3721 -0.2249  0.3394
  858SOL     H128773   0.562   1.320   7.567  0.4287  0.5371  0.8992
  858SOL     H228774   0.417   1.321   7.612  1.3070 -1.0068  3.9692
  859SOL    OH228775   2.476   7.813   6.353 -0.2963  0.1163  0.3421
  859SOL     H128776   2.417   7.745   6.318 -0.8992  0.2650  1.0570
  859SOL     H228777   2.511   7.856   6.275 -0.1845 -0.7816 -0.1161
  860SOL    OH228778   3.549   5.294   0.874 -0.0532 -0.1640  0.4422
  860SOL     H128779   3.634   5.256   0.852  0.0619 -0.1866  0.9233
  860SOL     H228780   3.550   5.381   0.834  0.0676 -0.2877  0.1749
  861SOL    OH228781   5.244   5.810   1.622 -0.1402  0.0584  0.5404
  861SOL     H128782   5.233   5.859   1.541  0.7062 -0.4238  0.1319
  861SOL     H228783   5.304   5.862   1.674 -1.3945  0.8333  1.2556
  862SOL    OH228784   4.889   5.682   0.719 -0.3641 -0.4773  0.2824
  862SOL     H128785   4.820   5.644   0.665  0.5949 -0.2306 -1.1584
  862SOL     H228786   4.878   5.641   0.805 -1.2486 -1.6889 -0.3912
  863SOL    OH228787   5.913   4.220   6.249  0.3343  0.5269 -0.5222
  863SOL     H128788   5.839   4.182   6.296  1.1248 -0.7379 -0.2554
  863SOL     H228789   5.973   4.146   6.236  1.0471  1.2981 -1.7088
  864SOL    OH228790   7.398   3.026   7.595  0.1071  0.3178 -0.5306
  864SOL     H128791   7.451   2.949   7.612 -1.0323 -0.2467  0.6084
  864SOL     H228792   7.408   3.080   7.674  0.5094  1.1097 -1.1124
  865SOL    OH228793   7.731   2.466   6.025  0.0507  0.6001 -0.1637
  865SOL     H128794   7.695   2.510   5.948 -1.0857  2.2457  1.2752
  865SOL     H228795   7.826   2.463   6.009 -0.2488  0.2222 -1.9625
  866SOL    OH228796   1.733   5.457   1.107 -1.3882 -0.1598  0.0353
  866SOL     H128797   1.727   5.500   1.022  0.4100 -1.8264 -0.9526
  866SOL     H228798   1.825   5.466   1.133 -1.3171 -2.0282  0.5262
  867SOL    OH228799   1.873   7.931   6.594  0.4690  0.2986  0.0155
  867SOL     H128800   1.817   7.889   6.528 -0.5925  0.6427  0.6887
  867SOL     H228801   1.847   7.890   6.677  1.7442 -0.0819  0.2360
  868SOL    OH228802   1.280   5.909   2.778  0.1363  0.2375 -0.2219
  868SOL     H128803   1.305   5.949   2.694  1.8841  0.2471  0.2721
  868SOL     H228804   1.360   5.913   2.830 -0.1434 -2.3813  0.4494
  869SOL    OH228805   4.834   2.247   6.858 -0.2332 -0.1112  0.5096
  869SOL     H128806   4.811   2.252   6.951 -0.5772 -1.3411  0.5066
  869SOL     H228807   4.791   2.324   6.819  0.4333  0.7574  1.4566
  870SOL    OH228808   4.683   3.448   8.002 -0.6574 -0.3321 -0.3772
  870SOL     H128809   4.679   3.541   7.980 -0.3392  0.1143  1.3414
  870SOL     H228810   4.772   3.421   7.979  0.0323  0.4018  1.3596
  871SOL    OH228811   7.001   6.485   1.272  0.2161 -0.2591  0.1666
  871SOL     H128812   7.023   6.560   1.218  0.7989 -1.2691 -1.0128
  871SOL     H228813   6.954   6.426   1.214  1.4550 -1.6683  0.5579
  872SOL    OH228814   6.189   1.337   7.566  0.1093  0.2937 -0.3838
  872SOL     H128815   6.201   1.359   7.474  0.5783  1.0581 -0.1518
  872SOL     H228816   6.200   1.421   7.612  1.4404 -0.3317  0.4906
  873SOL    OH228817   2.301   5.528   7.209  0.2853 -0.6272  0.2764
  873SOL     H128818   2.297   5.506   7.302 -0.1023  0.6595  0.5589
  873SOL     H228819   2.272   5.618   7.203 -1.4300 -1.2580 -1.3248
  874SOL    OH228820   6.344   6.958   7.883  0.1755  0.3039 -0.6215
  874SOL     H128821   6.292   6.964   7.803 -0.8958 -0.4888  0.0028
  874SOL     H228822   6.365   6.865   7.890 -2.6265 -0.2222  1.8031
  875SOL    OH228823   0.081   2.899   5.751 -0.4156 -0.5051 -0.2474
  875SOL     H128824   0.005   2.842   5.746 -1.2567  0.6870 -1.2434
  875SOL     H228825   0.057   2.976   5.699  1.3392  0.0214 -0.3020
  876SOL    OH228826   2.967   2.321   0.241  0.0268 -0.1144  0.5507
  876SOL     H128827   2.946   2.312   0.334 -1.4059  0.6158  0.3180
  876SOL     H228828   2.947   2.235   0.204 -0.3903 -0.0956  0.7318
  877SOL    OH228829   2.199   5.124   7.941 -0.2122  0.4822 -0.2407
  877SOL     H128830   2.236   5.212   7.944  2.1972 -0.5178  1.2212
  877SOL     H228831   2.117   5.134   7.893 -0.9481  3.8392  1.5460
  878SOL    OH228832   7.132   5.010   8.107  0.0098 -0.2123  0.2022
  878SOL     H128833   7.226   5.002   8.118 -0.0916 -1.6347  0.0815
  878SOL     H228834   7.121   5.085   8.048  0.9173  1.8622  2.5866
  879SOL    OH228835   4.561   7.943   8.205  0.3970  0.6148  0.3677
  879SOL     H128836   4.589   8.030   8.232  0.2628  0.5360  0.7642
  879SOL     H228837   4.633   7.911   8.149  0.0827  1.2814 -0.4220
  880SOL    OH228838   7.671   3.803   0.877  0.3070  0.0927 -0.4943
  880SOL     H128839   7.616   3.806   0.799  1.1871 -0.0642 -1.1222
  880SOL     H228840   7.686   3.709   0.891 -1.5323 -0.0142  1.0667
  881SOL    OH228841   2.646   2.255   2.302  0.0728  0.2819 -0.0504
  881SOL     H128842   2.653   2.221   2.212  2.6527  1.3315 -0.2905
  881SOL     H228843   2.682   2.343   2.297 -0.0433  0.4618  1.9686
  882SOL    OH228844   5.786   5.490   0.136 -0.3299 -0.4036  0.2995
  882SOL     H128845   5.704   5.515   0.179 -0.1444  0.3643  0.2202
  882SOL     H228846   5.783   5.395   0.133 -0.2593 -0.4760  2.1583
  883SOL    OH228847   1.410   0.352   6.725 -0.2874 -0.5310  0.5997
  883SOL     H128848   1.324   0.323   6.693  1.1735 -3.9993 -0.4594
  883SOL     H228849   1.439   0.281   6.782  3.0594 -0.7509 -1.2677
  884SOL    OH228850   1.860   2.692   0.698 -0.2508  0.3716  0.2526
  884SOL     H128851   1.889   2.738   0.777  0.2928 -0.2248  0.4009
  884SOL     H228852   1.875   2.754   0.627 -1.6694  1.2925  0.7280
  885SOL    OH228853   3.375   2.034   7.104  0.1939  0.2182  0.4255
  885SOL     H128854   3.448   2.057   7.162  0.2919  2.0961 -0.3899
  885SOL     H228855   3.296   2.049   7.156  0.2987  1.3807  0.2664
  886SOL    OH228856   7.286   0.736   7.534  0.1872  0.0399  0.2230
  886SOL     H128857   7.339   0.692   7.601  1.3790  0.1349 -0.6273
  886SOL     H228858   7.351   0.779   7.478 -0.8931  1.7325  0.2391
  887SOL    OH228859   0.343   6.855   5.430 -0.2758 -0.7510 -0.0045
  887SOL     H128860   0.392   6.783   5.390  0.5144 -0.8566  1.1185
  887SOL     H228861   0.384   6.867   5.516 -1.0626  0.3634  0.2297
  888SOL    OH228862   4.920   4.980   1.924  0.2758 -0.2633 -0.2455
  888SOL     H128863   4.920   4.962   1.830  0.5357 -0.8965 -0.1292
  888SOL     H228864   4.997   4.933   1.958  0.4582  0.3529  0.2076
  889SOL    OH228865   7.423   7.752   0.171 -0.2055  0.0144 -0.1469
  889SOL     H128866   7.453   7.731   0.083 -1.0705 -4.5764  0.5274
  889SOL     H228867   7.328   7.761   0.163 -0.2802 -0.3505  0.2669
  890SOL    OH228868   7.562   0.797   8.086 -0.3743  0.3285  0.4712
  890SOL     H128869   7.485   0.818   8.140 -0.6002  2.3752 -0.5857
  890SOL     H228870   7.528   0.741   8.017 -1.0422  1.5854 -0.2481
  891SOL    OH228871   7.068   6.890   6.367  0.8078 -0.1692  0.2180
  891SOL     H128872   7.087   6.834   6.443 -0.5849  0.1114  0.7896
  891SOL     H228873   7.144   6.879   6.310  0.9948 -1.9130  0.7655
  892SOL    OH228874   7.583   1.630   0.110  0.2006  0.0294  0.0287
  892SOL     H128875   7.646   1.566   0.077  1.8799  2.3372 -1.3075
  892SOL     H228876   7.498   1.594   0.084  1.0573 -1.9614 -0.1564
  893SOL    OH228877   1.577   4.077   0.184 -0.0385  0.1809  0.0678
  893SOL     H128878   1.566   4.102   0.276  0.0207 -0.2467  0.1929
  893SOL     H228879   1.667   4.047   0.178  0.0065  0.3655 -0.1690
  894SOL    OH228880   0.947   1.604   7.431 -0.2795 -0.0169  0.0079
  894SOL     H128881   0.968   1.690   7.468 -0.4219 -0.0937  0.2643
  894SOL     H228882   1.025   1.552   7.449 -1.0975 -0.6162  1.9229
  895SOL    OH228883   7.763   2.922   7.237 -0.1625  0.7440 -0.2002
  895SOL     H128884   7.793   2.996   7.289  0.4082 -0.3176  1.0213
  895SOL     H228885   7.668   2.929   7.238 -0.2122  0.1784  1.8837
  896SOL    OH228886   4.127   4.865   2.397  0.4386  0.2714 -0.1458
  896SOL     H128887   4.124   4.773   2.372  0.4340  0.2392 -0.0265
  896SOL     H228888   4.219   4.889   2.393  0.8993 -0.7094  3.3851
  897SOL    OH228889   0.330   3.550   1.207 -0.0712 -0.7719  0.3619
  897SOL     H128890   0.423   3.565   1.225 -0.2738  0.5010  0.3470
  897SOL     H228891   0.319   3.574   1.115 -0.4365 -0.8157  0.3925
  898SOL    OH228892   5.803   2.458   0.042 -0.0977 -0.4758  0.7530
  898SOL     H128893   5.770   2.544   0.014  2.8730  0.3838 -0.3072
  898SOL     H228894   5.726   2.403   0.048 -2.0181  2.1550  0.9759
  899SOL    OH228895   1.959   0.965   2.848  0.9038 -0.5829  0.3580
  899SOL     H128896   1.965   1.058   2.824 -1.4570 -0.2816  0.8220
  899SOL     H228897   1.910   0.925   2.776 -0.1241 -0.9998  1.2769
  900SOL    OH228898   4.409   6.689   8.115  0.3423 -0.2098  0.3996
  900SOL     H128899   4.451   6.682   8.029 -0.4083  1.7473 -0.1508
  900SOL     H228900   4.333   6.630   8.108  1.7121 -2.0573  0.6486
  901SOL    OH228901   2.630   3.559   1.516 -0.6230  0.0550  0.4141
  901SOL     H128902   2.712   3.570   1.564 -1.8355  2.7979  1.9741
  901SOL     H228903   2.578   3.637   1.538 -3.1388 -0.9739 -1.5645
  902SOL    OH228904   6.725   7.834   1.139  0.6073  0.3794 -0.1959
  902SOL     H128905   6.742   7.899   1.208 -0.7771 -0.3865  0.8831
  902SOL     H228906   6.804   7.780   1.138  0.8355  0.6960  0.4519
  903SOL    OH228907   2.564   4.497   7.074  0.5522 -0.4112 -0.5750
  903SOL     H128908   2.543   4.554   7.148 -1.0221 -0.7994 -0.7027
  903SOL     H228909   2.647   4.530   7.041  0.0932  1.2674 -0.1104
  904SOL    OH228910   6.883   5.019   7.818 -0.1652 -0.0007 -0.0476
  904SOL     H128911   6.802   4.991   7.776  0.0259  0.2111 -0.5755
  904SOL     H228912   6.893   4.961   7.893 -0.3677 -0.5853 -0.4662
  905SOL    OH228913   4.163   4.583   2.407  0.1886 -0.3152  0.3700
  905SOL     H128914   4.128   4.581   2.496 -0.2530 -1.7558  0.1756
  905SOL     H228915   4.194   4.494   2.392 -1.6277 -0.6285 -1.6739
  906SOL    OH228916   4.115   6.224   2.103  0.1681  0.3281  0.1832
  906SOL     H128917   4.189   6.179   2.060 -0.3504  0.0236 -0.4004
  906SOL     H228918   4.048   6.229   2.035 -0.6723 -0.1678  0.9716
  907SOL    OH228919   0.459   4.865   7.583 -0.7892  0.2058  0.1332
  907SOL     H128920   0.443   4.919   7.661 -0.1548 -0.5321  0.7879
  907SOL     H228921   0.389   4.889   7.522 -0.3271  2.0030  0.2850
  908SOL    OH228922   3.369   1.150   1.295  0.0748  0.4856  0.3323
  908SOL     H128923   3.300   1.194   1.247  1.0877  1.4764 -0.2279
  908SOL     H228924   3.388   1.071   1.244 -0.3357  0.4328  0.2612
  909SOL    OH228925   6.114   4.480   0.798  0.0036 -0.0513  0.4474
  909SOL     H128926   6.094   4.398   0.753  2.5640  1.1202 -3.0896
  909SOL     H228927   6.208   4.479   0.811 -0.0293  1.9500  1.0653
  910SOL    OH228928   7.606   2.929   2.519 -0.1327 -0.0073 -0.1666
  910SOL     H128929   7.522   2.914   2.563 -0.5563  0.7687 -0.7045
  910SOL     H228930   7.648   2.843   2.519 -1.0241 -0.4518 -0.0910
  911SOL    OH228931   5.720   4.976   0.158  0.6938  0.0332 -0.1904
  911SOL     H128932   5.721   4.882   0.142  1.8419  0.2425 -1.4058
  911SOL     H228933   5.676   4.986   0.243  0.2221 -1.5568 -0.2426
  912SOL    OH228934   1.803   5.646   6.855  0.4164 -0.1395 -0.1936
  912SOL     H128935   1.867   5.644   6.926  0.5471  1.3257 -0.2651
  912SOL     H228936   1.846   5.696   6.786 -0.9914  1.2958 -0.0520
  913SOL    OH228937   2.323   6.920   6.462  0.2236  0.1406  0.3663
  913SOL     H128938   2.275   6.876   6.532 -0.4643 -0.2846 -0.3648
  913SOL     H228939   2.260   6.983   6.425  0.4991  0.1852 -0.0342
  914SOL    OH228940   1.089   4.951   7.889 -0.5177  0.1210  0.3320
  914SOL     H128941   1.027   5.014   7.850  0.0567 -0.3170 -1.3072
  914SOL     H228942   1.166   5.004   7.911 -0.1017  0.0311 -0.8894
  915SOL    OH228943   6.086   3.381   1.659 -0.3104 -0.2855  0.5943
  915SOL     H128944   5.999   3.345   1.647 -0.1502  0.2511 -2.5471
  915SOL     H228945   6.074   3.476   1.651  0.6385 -0.2505 -0.6447
  916SOL    OH228946   4.261   7.730   7.535 -0.1103  0.4919 -0.2865
  916SOL     H128947   4.183   7.677   7.551 -0.6462  1.2189 -0.4693
  916SOL     H228948   4.325   7.668   7.499 -0.9408  0.0905 -1.1028
  917SOL    OH228949   5.474   4.087   2.709  0.3651 -0.4864 -0.0995
  917SOL     H128950   5.519   4.120   2.786 -0.1781  1.1730 -0.4887
  917SOL     H228951   5.522   4.124   2.635 -0.6741  0.0268 -0.5279
  918SOL    OH228952   7.858   7.159   7.676  0.1545 -0.4228  0.4922
  918SOL     H128953   7.862   7.226   7.745 -0.0450  1.0461 -0.8856
  918SOL     H228954   7.940   7.171   7.628 -1.9291  2.0132 -2.6101
  919SOL    OH228955   0.595   7.676   6.515 -0.2958  0.1548  0.3324
  919SOL     H128956   0.611   7.716   6.430 -1.1817 -2.4836 -1.1179
  919SOL     H228957   0.507   7.705   6.540 -0.4584  0.0615 -0.1412
  920SOL    OH228958   6.024   1.158   6.149 -0.0948  0.4246  0.3827
  920SOL     H128959   6.068   1.154   6.234  1.5286 -1.8566 -0.5062
  920SOL     H228960   6.069   1.228   6.103  0.5778  0.1296  0.5795
  921SOL    OH228961   5.109   4.420   7.640 -0.6784  0.0543  0.2831
  921SOL     H128962   5.053   4.468   7.578  0.1213  0.6339  0.0026
  921SOL     H228963   5.156   4.357   7.586 -0.6158 -0.0280  0.4328
  922SOL    OH228964   7.918   7.805   0.102  0.0771 -0.6666 -0.2508
  922SOL     H128965   7.935   7.872   0.035 -0.6758  0.1615  0.3710
  922SOL     H228966   7.952   7.843   0.183  0.6418 -1.5116 -0.0800
  923SOL    OH228967   5.521   2.386   7.608 -0.2741  0.3646  0.0349
  923SOL     H128968   5.585   2.329   7.564  1.0036  1.4566  0.4493
  923SOL     H228969   5.554   2.475   7.593 -1.1982  0.8871  1.0500
  924SOL    OH228970   2.575   0.386   2.069 -0.1306 -0.1554  0.0791
  924SOL     H128971   2.523   0.348   1.998  2.6967  0.0651 -2.2066
  924SOL     H228972   2.642   0.320   2.088  0.0573  0.4227  1.5395
  925SOL    OH228973   3.862   5.996   6.735  0.1880 -0.5104  0.2081
  925SOL     H128974   3.954   5.988   6.761  0.0564  1.2489  1.3180
  925SOL     H228975   3.816   6.020   6.816 -0.8049  1.3982 -0.8648
  926SOL    OH228976   7.024   0.940   7.520 -0.8426 -0.4662 -0.0003
  926SOL     H128977   7.037   1.035   7.522 -1.4665 -0.3624 -0.6895
  926SOL     H228978   7.112   0.904   7.511 -0.3179 -0.0769  3.0086
  927SOL    OH228979   7.825   3.676   7.975  0.5585  0.0439  0.6222
  927SOL     H128980   7.831   3.748   7.913 -1.2000  1.3013  1.8503
  927SOL     H228981   7.738   3.638   7.959  0.7984 -0.7189  1.1189
  928SOL    OH228982   3.638   2.152   1.473 -0.3081  0.1659 -0.4739
  928SOL     H128983   3.597   2.093   1.536 -0.1375  0.9578  0.3975
  928SOL     H228984   3.731   2.131   1.478 -0.4824 -0.9262 -1.6994
  929SOL    OH228985   7.821   4.582   6.480 -0.6981  0.4127 -0.3328
  929SOL     H128986   7.843   4.506   6.427 -0.1155 -0.3368  0.9628
  929SOL     H228987   7.863   4.656   6.435  1.0958 -0.4350 -0.0773
  930SOL    OH228988   3.825   5.497   1.335 -0.5789  0.0777 -0.3621
  930SOL     H128989   3.813   5.447   1.254  1.3909 -1.1957  0.0993
  930SOL     H228990   3.848   5.585   1.305  0.0592 -0.3631 -1.1862
  931SOL    OH228991   2.162   7.147   6.392  0.1925  0.0576 -0.0464
  931SOL     H128992   2.163   7.224   6.449 -0.4250 -0.6661  0.9685
  931SOL     H228993   2.172   7.182   6.304  2.0141  1.1349  0.5581
  932SOL    OH228994   6.591   4.223   0.689  0.1070 -0.0465 -0.3093
  932SOL     H128995   6.627   4.187   0.608  0.4341  0.8517 -0.5743
  932SOL     H228996   6.668   4.251   0.739 -0.1693  1.1711 -0.5422
  933SOL    OH228997   5.565   4.939   7.477  0.5201 -0.3855 -0.5187
  933SOL     H128998   5.655   4.958   7.505  0.8868 -0.1186 -1.8525
  933SOL     H228999   5.528   4.888   7.549  2.1954 -1.7254 -0.5516
  934SOL    OH229000   6.300   6.870   0.237 -0.1757  0.3927  0.7814
  934SOL     H129001   6.229   6.882   0.174 -2.2888 -1.5067  2.6956
  934SOL     H229002   6.319   6.958   0.269  0.7783  1.3446 -2.3081
  935SOL    OH229003   0.342   5.917   0.126  0.7550 -0.1915 -0.0714
  935SOL     H129004   0.421   5.863   0.121  1.3532  0.7856 -1.8846
  935SOL     H229005   0.374   6.007   0.126 -0.2661  0.1921  2.0181
  936SOL    OH229006   7.043   6.957   6.878 -0.1228 -0.3282  0.0376
  936SOL     H129007   7.035   7.014   6.955  0.1754 -0.6996  0.3484
  936SOL     H229008   7.137   6.945   6.867 -0.1762 -0.6051 -0.1363
  937SOL    OH229009   7.292   7.017   0.205 -0.1182 -0.2946 -0.0227
  937SOL     H129010   7.287   7.102   0.163  3.3535 -0.2824 -0.6098
  937SOL     H229011   7.207   6.977   0.191 -1.4349  2.6323 -0.6689
  938SOL    OH229012   3.915   2.301   1.173  0.3443  0.0448 -0.2181
  938SOL     H129013   3.934   2.286   1.266  1.3871 -0.1166 -0.4460
  938SOL     H229014   3.828   2.341   1.172 -0.8368 -2.3557  0.6655
  939SOL    OH229015   5.719   5.836   1.781 -1.2221  0.2248 -0.7131
  939SOL     H129016   5.801   5.879   1.802 -0.7082 -1.7483  1.4951
  939SOL     H229017   5.734   5.794   1.696  0.2618 -0.6635 -0.0179
  940SOL    OH229018   7.896   4.052   7.182 -0.4326  0.3273 -0.2879
  940SOL     H129019   7.911   4.085   7.093  1.7224 -0.1717 -0.1337
  940SOL     H229020   7.814   4.093   7.209  0.2524  2.6114 -1.5141
  941SOL    OH229021   7.215   0.835   7.982 -0.4115 -0.6553  0.5367
  941SOL     H129022   7.272   0.848   8.058 -0.1080 -2.1696  0.5840
  941SOL     H229023   7.156   0.765   8.008  0.3062 -1.8480 -0.9665
  942SOL    OH229024   1.980   0.393   0.191  0.4819 -0.4697  0.2406
  942SOL     H129025   2.026   0.337   0.130  1.7250  0.2624  0.4811
  942SOL     H229026   1.967   0.476   0.144  0.3199 -0.3260  0.5291
  943SOL    OH229027   0.037   4.445   6.901 -0.3850 -0.2906 -0.4721
  943SOL     H129028   0.010   4.399   6.821  0.8204 -1.3973 -0.2534
  943SOL     H229029   0.018   4.537   6.883 -2.2074 -0.7720 -1.1746
  944SOL    OH229030   3.970   5.635   6.364  0.1809  0.6787  0.0841
  944SOL     H129031   4.058   5.600   6.349  0.4961  2.6979 -3.1035
  944SOL     H229032   3.985   5.724   6.396 -0.7006 -0.1136  2.8351
  945SOL    OH229033   2.838   0.289   2.138 -0.0685 -0.2040  0.4715
  945SOL     H129034   2.933   0.289   2.152  0.1693  0.4314 -0.9828
  945SOL     H229035   2.815   0.197   2.128  0.3932 -0.3640  0.8564
  946SOL    OH229036   4.420   0.410   2.007  0.0849 -0.2682 -0.0195
  946SOL     H129037   4.481   0.346   2.045 -0.6771 -0.5279  0.7901
  946SOL     H229038   4.463   0.439   1.926  1.3714 -0.2822  0.6518
  947SOL    OH229039   0.084   1.068   1.863 -0.0031 -0.3921 -0.0537
  947SOL     H129040   0.000   1.026   1.885  0.3373 -0.2977  1.5296
  947SOL     H229041   0.136   1.058   1.943  1.2663  0.1128 -0.8180
  948SOL    OH229042   4.746   4.663   2.750 -0.2670  0.1670 -0.3482
  948SOL     H129043   4.680   4.731   2.761  0.2719  0.4711  1.0202
  948SOL     H229044   4.826   4.701   2.787 -0.1435 -1.4943  1.0982
  949SOL    OH229045   0.728   5.193   1.712  0.1514  0.1019  0.6418
  949SOL     H129046   0.721   5.134   1.638  1.3826  0.5651  0.1538
  949SOL     H229047   0.652   5.252   1.703 -1.3291 -1.6365  1.3762
  950SOL    OH229048   6.028   0.942   0.422 -0.3665 -0.0663  0.3876
  950SOL     H129049   5.997   0.856   0.449 -0.5736 -0.7391 -1.8741
  950SOL     H229050   6.120   0.927   0.397 -0.8999 -0.0103 -1.6444
  951SOL    OH229051   5.139   2.518   2.700  0.4700 -0.1767  0.4535
  951SOL     H129052   5.141   2.459   2.624  1.9787  1.7038 -1.0049
  951SOL     H229053   5.111   2.462   2.772  3.0649 -3.0235 -0.6258
  952SOL    OH229054   6.716   0.517   0.545  0.2647 -0.3272 -0.2292
  952SOL     H129055   6.698   0.427   0.572  1.8487 -0.6564 -0.2474
  952SOL     H229056   6.806   0.515   0.512  0.6709  1.4737  0.7063
  953SOL    OH229057   1.632   4.336   1.974 -0.1759  0.0575  0.3236
  953SOL     H129058   1.600   4.420   1.942  2.0500  0.9050  0.2594
  953SOL     H229059   1.644   4.348   2.068  1.3836  0.2556  0.1216
  954SOL    OH229060   1.689   2.921   7.319 -0.0539  0.4166  0.6282
  954SOL     H129061   1.661   2.952   7.405 -1.4176 -0.2527  0.4424
  954SOL     H229062   1.775   2.961   7.306 -0.4134  1.5843  1.7270
  955SOL    OH229063   0.794   7.490   7.389 -0.0574 -0.2809  0.1563
  955SOL     H129064   0.747   7.551   7.332 -0.0828  0.1006  0.5857
  955SOL     H229065   0.860   7.543   7.433  2.4458 -1.2970 -2.3053
  956SOL    OH229066   1.299   6.870   6.931  0.2441 -0.6686  0.9019
  956SOL     H129067   1.380   6.838   6.972  1.6520  1.8252  0.1862
  956SOL     H229068   1.270   6.942   6.988 -1.0116 -0.9986  0.6909
  957SOL    OH229069   6.899   6.520   1.935  0.0459 -0.6630 -0.7864
  957SOL     H129070   6.928   6.472   2.013  1.2983 -2.5252 -2.3792
  957SOL     H229071   6.973   6.576   1.912 -0.6205  0.4887 -0.2075
  958SOL    OH229072   2.412   5.815   0.891  0.3806  0.0276  0.0987
  958SOL     H129073   2.423   5.760   0.813 -0.5883 -2.2342  1.5286
  958SOL     H229074   2.467   5.892   0.873  1.6032 -1.2752 -2.0252
  959SOL    OH229075   4.234   3.678   8.273 -0.2608  0.0358  0.2530
  959SOL     H129076   4.307   3.720   8.229  0.4602  0.4105  1.7558
  959SOL     H229077   4.167   3.667   8.206  1.9228 -2.1958 -1.6489
  960SOL    OH229078   3.028   3.908   1.169  0.3239 -0.1737 -0.7916
  960SOL     H129079   3.072   3.956   1.098  0.2821  1.9824  0.5864
  960SOL     H229080   3.099   3.875   1.224  0.3043  0.4789 -0.3694
  961SOL    OH229081   3.293   1.299   6.665 -0.8433  0.5777  0.7292
  961SOL     H129082   3.251   1.378   6.698  1.1897  0.9395  2.5407
  961SOL     H229083   3.383   1.325   6.648 -0.5259 -0.9763 -0.1009
  962SOL    OH229084   6.137   4.692   7.379 -0.0207  0.2847  0.1061
  962SOL     H129085   6.105   4.730   7.460  0.0367 -0.1730  0.3442
  962SOL     H229086   6.147   4.599   7.398 -0.0015  0.1761 -0.4233
  963SOL    OH229087   6.588   7.578   0.197 -0.5675  0.4813  0.6096
  963SOL     H129088   6.517   7.515   0.211  0.1284 -0.6237 -0.6750
  963SOL     H229089   6.551   7.662   0.223 -2.9063  0.1934 -1.5195
  964SOL    OH229090   4.127   3.959   1.188  0.4662 -0.3824 -0.3362
  964SOL     H129091   4.051   4.017   1.191  1.2373  0.6577 -0.3097
  964SOL     H229092   4.201   4.019   1.176  1.2176 -1.4205 -0.9508
  965SOL    OH229093   5.861   1.419   0.036  0.3487  0.7886 -0.2631
  965SOL     H129094   5.891   1.483  -0.028 -0.9527  1.0269 -0.6586
  965SOL     H229095   5.787   1.376  -0.006  0.0839  0.2813  0.6962
  966SOL    OH229096   6.979   3.544   7.530  0.1307  0.4225  0.9735
  966SOL     H129097   7.018   3.538   7.617  0.8156  1.8270  0.7854
  966SOL     H229098   7.037   3.492   7.474  0.4470  0.6093  1.1221
  967SOL    OH229099   7.377   0.372   1.725 -0.2217  0.1703 -0.1726
  967SOL     H129100   7.337   0.338   1.644  0.0880  1.8615 -1.0603
  967SOL     H229101   7.470   0.356   1.714 -0.2846 -0.5653  0.3336
  968SOL    OH229102   7.679   7.332   7.337  0.2226 -0.3254 -0.4129
  968SOL     H129103   7.591   7.305   7.364 -0.5794  2.4033 -0.1468
  968SOL     H229104   7.695   7.284   7.256 -1.0252 -1.7454  0.1575
  969SOL    OH229105   1.762   2.270   1.776  0.1137  0.3054 -0.2463
  969SOL     H129106   1.818   2.346   1.761 -0.8570  0.6801 -2.2467
  969SOL     H229107   1.764   2.222   1.693 -0.1868 -1.2627  0.6215
  970SOL    OH229108   3.142   4.056   0.958  0.5730 -0.2649  0.2433
  970SOL     H129109   3.191   3.984   0.919 -1.1295 -1.5909  0.4977
  970SOL     H229110   3.114   4.109   0.883 -1.0325 -1.7383 -0.2506
  971SOL    OH229111   1.421   6.348   0.815  0.1506  0.2504 -0.3363
  971SOL     H129112   1.428   6.418   0.879  1.3784 -0.4740  0.3302
  971SOL     H229113   1.488   6.367   0.750 -0.5120  0.5083 -0.9506
  972SOL    OH229114   1.166   2.834   1.389  0.2801  0.1957 -0.1754
  972SOL     H129115   1.166   2.774   1.463 -0.7937  0.3028 -0.0753
  972SOL     H229116   1.182   2.778   1.313 -0.7689 -0.2291 -0.0897
  973SOL    OH229117   0.332   5.444   2.135  0.6723 -0.2121 -0.1392
  973SOL     H129118   0.399   5.385   2.171  0.5695 -0.5704 -0.5315
  973SOL     H229119   0.323   5.513   2.201  1.0217 -0.4643  0.1765
  974SOL    OH229120   6.882   1.947   0.813 -0.0013  0.1089 -0.3530
  974SOL     H129121   6.808   1.943   0.873  1.5145 -0.9535  1.5413
  974SOL     H229122   6.911   1.856   0.805  1.1396  0.5143 -0.9808
  975SOL    OH229123   2.100   1.762   2.252 -0.3367 -0.4977  0.3665
  975SOL     H129124   2.155   1.806   2.317  0.6031 -1.5382  0.2917
  975SOL     H229125   2.136   1.790   2.168 -0.1856 -0.8361  0.3165
  976SOL    OH229126   5.319   1.349   7.303  0.2710  0.5494 -0.0682
  976SOL     H129127   5.363   1.352   7.218  1.8515  0.4540  0.7429
  976SOL     H229128   5.329   1.438   7.338 -1.0468  0.8036 -0.2968
  977SOL    OH229129   6.119   5.415   6.042 -0.6621 -0.1444 -0.3689
  977SOL     H129130   6.190   5.352   6.052 -1.1488 -0.8571 -1.3474
  977SOL     H229131   6.156   5.498   6.074  0.6512 -0.4825 -0.9747
  978SOL    OH229132   2.941   7.869   6.670  1.0086  0.0409 -0.0820
  978SOL     H129133   2.856   7.839   6.700  0.1282 -0.3716 -2.8708
  978SOL     H229134   2.953   7.954   6.712 -0.6544 -0.0068  0.5131
  979SOL    OH229135   5.680   6.406   0.067  0.1340  0.1826  0.3963
  979SOL     H129136   5.731   6.327   0.086  0.6459  0.4973  0.3391
  979SOL     H229137   5.624   6.380  -0.006 -0.5545 -0.4856  1.1459
  980SOL    OH229138   2.196   3.460   7.562 -0.0940  0.6808 -0.0415
  980SOL     H129139   2.160   3.470   7.474 -0.3319  0.7862  0.0672
  980SOL     H229140   2.119   3.462   7.619  0.1672  2.0335  0.2786
  981SOL    OH229141   2.982   7.231   6.495  0.7534 -0.1934 -0.1379
  981SOL     H129142   3.042   7.228   6.420  0.1438  0.0280 -0.6351
  981SOL     H229143   2.896   7.248   6.456  0.0174 -2.5828  0.3737
  982SOL    OH229144   6.009   1.020   1.599 -0.6525 -0.2011 -0.3159
  982SOL     H129145   6.000   0.977   1.685 -1.4751 -0.6716 -0.6229
  982SOL     H229146   5.990   0.950   1.536 -2.2648  0.6579 -0.8201
  983SOL    OH229147   1.813   7.848   6.874 -0.8633  0.8664 -0.2065
  983SOL     H129148   1.844   7.762   6.902  1.0177  1.4238 -0.5628
  983SOL     H229149   1.787   7.892   6.956  0.3410  0.8107  0.2105
  984SOL    OH229150   7.247   4.517   2.191 -0.5710  0.0675 -0.1860
  984SOL     H129151   7.304   4.577   2.144  2.1296 -2.4548 -0.2683
  984SOL     H229152   7.277   4.522   2.282 -0.6308 -0.8292 -0.1166
  985SOL    OH229153   4.709   1.044   0.923  0.0834  0.0588 -0.2787
  985SOL     H129154   4.674   1.046   1.012  0.5000  0.7528 -0.1294
  985SOL     H229155   4.756   0.961   0.919  0.0814  0.0315  0.1529
  986SOL    OH229156   1.065   4.205   1.133  0.3676 -0.9297 -0.0197
  986SOL     H129157   1.068   4.160   1.218  1.0671 -0.3677  0.2515
  986SOL     H229158   0.972   4.221   1.118  0.2107 -1.3770  0.4554
  987SOL    OH229159   3.286   0.737   0.807 -0.0404 -0.2179  0.4471
  987SOL     H129160   3.277   0.656   0.857  0.1872 -0.5913 -0.1135
  987SOL     H229161   3.202   0.746   0.761 -0.4392  0.3896  1.2810
  988SOL    OH229162   4.298   6.217   0.216  0.7529  0.2640 -0.3763
  988SOL     H129163   4.383   6.175   0.223  1.0921  0.9571 -0.3127
  988SOL     H229164   4.294   6.248   0.126  0.4033 -0.1159 -0.4928
  989SOL    OH229165   0.179   3.508   6.298 -0.4976  0.4089  0.3753
  989SOL     H129166   0.158   3.550   6.215  0.3628  0.1152 -0.0044
  989SOL     H229167   0.223   3.427   6.273 -0.5618  0.1397  1.1141
  990SOL    OH229168   3.081   7.499   0.545 -1.2281 -0.5735 -0.0447
  990SOL     H129169   3.000   7.524   0.501 -0.1169  2.7498 -0.3325
  990SOL     H229170   3.052   7.447   0.620 -3.5178 -0.8326 -1.0612
  991SOL    OH229171   1.063   1.282   2.310  0.0400  0.4120  0.3932
  991SOL     H129172   1.035   1.244   2.393 -0.2626  2.0541  1.0421
  991SOL     H229173   1.111   1.361   2.334 -0.6192  1.2550 -1.0180
  992SOL    OH229174   2.537   3.296   1.526  0.1740  0.2718  0.7699
  992SOL     H129175   2.578   3.381   1.513 -0.0163  0.0970 -1.0434
  992SOL     H229176   2.447   3.316   1.549  0.1321  0.5701  0.3512
  993SOL    OH229177   0.055   2.715   7.829 -0.3795 -0.4986 -0.2865
  993SOL     H129178  -0.031   2.713   7.870 -1.1232 -1.1439 -1.8430
  993SOL     H229179   0.094   2.631   7.853 -0.8295 -0.8931 -0.9246
  994SOL    OH229180   7.628   6.547   0.036  0.1638 -0.4085 -0.0915
  994SOL     H129181   7.551   6.527  -0.017  0.1299 -0.3028 -0.0810
  994SOL     H229182   7.599   6.534   0.126 -0.6634  2.4294  0.0805
  995SOL    OH229183   3.152   6.552   1.064  0.6398  0.0517  0.3624
  995SOL     H129184   3.127   6.481   1.123  0.0006  0.5885  0.7481
  995SOL     H229185   3.214   6.604   1.115  1.1512 -0.2602  0.0595
  996SOL    OH229186   6.798   6.916   0.580 -0.1823 -0.3794 -0.3729
  996SOL     H129187   6.833   6.946   0.497  0.5962  0.8909  0.3904
  996SOL     H229188   6.858   6.848   0.609 -1.0041 -1.5147 -1.3066
  997SOL    OH229189   6.350   5.733   7.719 -0.0696  0.5037  0.0657
  997SOL     H129190   6.303   5.674   7.777  0.8324 -0.4734 -0.1863
  997SOL     H229191   6.282   5.778   7.669 -0.7730  0.0844  0.6485
  998SOL    OH229192   0.227   1.213   2.413  0.4276  0.0342 -0.3079
  998SOL     H129193   0.264   1.294   2.449  0.9209  0.7869 -2.4615
  998SOL     H229194   0.302   1.166   2.378 -0.1553 -0.3253 -1.0728
  999SOL    OH229195   5.390   2.737   0.816  0.3266  0.5084 -0.6461
  999SOL     H129196   5.446   2.812   0.795 -1.1677  1.8857  0.1676
  999SOL     H229197   5.424   2.704   0.899 -0.6019  1.9119  0.3183
 1000SOL    OH229198   3.927   3.699   6.619 -0.1265  0.3501 -0.3136
 1000SOL     H129199   4.002   3.712   6.676  0.1298  1.1666 -0.8335
 1000SOL     H229200   3.963   3.699   6.531 -0.7002  0.5125 -0.5521
 1001SOL    OH229201   0.704   1.235   6.416  0.2433 -0.3336 -0.0340
 1001SOL     H129202   0.609   1.228   6.416  0.0150  2.0974  1.9660
 1001SOL     H229203   0.722   1.314   6.367  1.1782 -0.2675  0.4057
 1002SOL    OH229204   3.628   7.890   0.756  0.1048  0.6677 -0.2252
 1002SOL     H129205   3.720   7.915   0.769  0.6092 -0.9408 -0.5890
 1002SOL     H229206   3.580   7.972   0.764  1.4004  1.2762  1.6930
 1003SOL    OH229207   4.582   0.952   1.894 -0.1576 -0.1400  0.4554
 1003SOL     H129208   4.507   0.902   1.926 -1.8881  0.8306 -1.9465
 1003SOL     H229209   4.612   0.905   1.817  1.3007 -0.1193  0.9805
 1004SOL    OH229210   4.652   7.363   0.338 -0.0271 -0.4921  0.4544
 1004SOL     H129211   4.647   7.429   0.269  1.2862  0.4108  1.2091
 1004SOL     H229212   4.594   7.395   0.406  1.9579  0.8095  1.5705
 1005SOL    OH229213   6.169   6.337   1.522  0.1676  0.4149 -0.8861
 1005SOL     H129214   6.196   6.275   1.590 -1.5532  1.9386  1.2579
 1005SOL     H229215   6.220   6.416   1.541 -2.2828  1.7471  0.3161
 1006SOL    OH229216   5.458   3.857   8.171  0.2035 -0.0152 -0.1216
 1006SOL     H129217   5.485   3.795   8.239 -0.7922  0.1966  0.4798
 1006SOL     H229218   5.429   3.934   8.220 -1.6853 -0.3140 -0.7188
 1007SOL    OH229219   2.047   7.868   0.752 -0.6545  0.2042 -1.1741
 1007SOL     H129220   1.996   7.787   0.747  0.7748 -0.6912 -1.5952
 1007SOL     H229221   1.999   7.930   0.697 -1.0966 -0.7346 -1.8684
 1008SOL    OH229222   5.359   5.021   6.952 -0.1539 -0.0641 -0.4230
 1008SOL     H129223   5.455   5.019   6.943 -0.1781  0.4481 -0.8520
 1008SOL     H229224   5.338   5.114   6.950 -0.7557 -0.2114 -1.3792
 1009SOL    OH229225   5.401   3.907   7.638  0.0849 -0.1366 -0.2377
 1009SOL     H129226   5.495   3.913   7.621  0.0637  1.0058 -0.0157
 1009SOL     H229227   5.360   3.924   7.554  0.0808 -0.5079 -0.3085
 1010SOL    OH229228   4.889   0.517   6.128 -0.1201 -0.4372  0.0351
 1010SOL     H129229   4.935   0.434   6.114  0.4172 -0.1451  0.0555
 1010SOL     H229230   4.831   0.526   6.052 -0.7109 -1.1845  0.3948
 1011SOL    OH229231   0.086   7.175   6.313  0.4432 -0.4110 -0.6359
 1011SOL     H129232   0.050   7.100   6.360  1.5105 -0.6193 -0.1433
 1011SOL     H229233   0.141   7.220   6.377  0.5490  0.2686 -1.1946
 1012SOL    OH229234   4.295   3.345   7.849 -0.0568  0.2792  0.0861
 1012SOL     H129235   4.207   3.382   7.837  0.7255  1.8179 -1.0524
 1012SOL     H229236   4.303   3.280   7.779  0.8303  2.3369 -1.8084
 1013SOL    OH229237   6.126   6.973   8.313 -0.3599  0.5825 -0.3381
 1013SOL     H129238   6.106   7.022   8.233 -1.6099  0.5969 -0.0141
 1013SOL     H229239   6.140   6.883   8.284  1.3986  0.9891 -0.8615
 1014SOL    OH229240   5.407   5.730   7.466 -0.2411  0.1902  0.2687
 1014SOL     H129241   5.423   5.669   7.538 -0.4707 -0.4562 -0.2209
 1014SOL     H229242   5.458   5.808   7.489 -0.3000 -0.0159  1.1190
 1015SOL    OH229243   2.870   4.032   0.808  0.2158  0.2047 -0.4577
 1015SOL     H129244   2.814   3.959   0.833  1.6312 -0.7719 -0.0700
 1015SOL     H229245   2.848   4.050   0.717  0.5140 -1.3418 -0.8495
 1016SOL    OH229246   3.895   1.693   6.718  0.8424  0.4302 -0.0231
 1016SOL     H129247   3.885   1.607   6.678 -1.1931  1.1755 -1.1412
 1016SOL     H229248   3.886   1.676   6.812 -1.6059 -0.3101 -0.3593
 1017SOL    OH229249   0.053   1.826   0.473  0.1379  0.3856  0.4497
 1017SOL     H129250   0.050   1.730   0.475 -1.5808  0.3926 -0.3097
 1017SOL     H229251   0.071   1.848   0.382  2.3807  0.7950  0.9548
 1018SOL    OH229252   5.820   6.744   0.027  0.3378  0.3167  0.6502
 1018SOL     H129253   5.894   6.713   0.079 -0.2671 -0.1108  1.2738
 1018SOL     H229254   5.815   6.683  -0.047  0.2839  0.0304  0.8902
 1019SOL    OH229255   7.698   3.946   7.556  0.5196  0.5312  0.4104
 1019SOL     H129256   7.693   4.033   7.516 -1.5304  0.6640  0.9394
 1019SOL     H229257   7.648   3.890   7.498  2.7902 -0.5787 -0.5564
 1020SOL    OH229258   5.355   1.190   0.818  0.0347 -0.6709 -0.5555
 1020SOL     H129259   5.449   1.177   0.822 -0.1579 -2.4330 -1.0344
 1020SOL     H229260   5.335   1.199   0.725  0.0171  2.2950 -0.3024
 1021SOL    OH229261   6.263   4.348   1.828  0.6114 -0.1269 -0.0774
 1021SOL     H129262   6.263   4.443   1.831 -1.6321 -0.1003 -0.0074
 1021SOL     H229263   6.272   4.326   1.735 -3.3917  0.2738 -0.6540
 1022SOL    OH229264   7.813   1.432   0.031 -0.2182  0.2484  0.2017
 1022SOL     H129265   7.847   1.513  -0.006 -2.5505  1.9237  1.6635
 1022SOL     H229266   7.846   1.431   0.121 -0.7978 -0.0673  0.4135
 1023SOL    OH229267   6.839   4.877   8.057  0.0633 -0.1571  0.1113
 1023SOL     H129268   6.785   4.799   8.071 -0.3579  0.2014  0.4768
 1023SOL     H229269   6.929   4.844   8.057 -0.0299 -0.4403  1.7166
 1024SOL    OH229270   2.278   0.826   6.797  0.0362 -0.1413 -0.2727
 1024SOL     H129271   2.197   0.862   6.835  0.5283  1.3670 -0.6330
 1024SOL     H229272   2.298   0.750   6.851 -0.7761  0.3906  0.7909
 1025SOL    OH229273   7.454   6.886   7.720  1.1404  0.6305  0.3488
 1025SOL     H129274   7.474   6.979   7.716 -0.1888  0.9148  0.0499
 1025SOL     H229275   7.361   6.880   7.700  1.0947 -0.7233  0.8665
 1026SOL    OH229276   3.507   3.114   6.247  0.6520 -0.6948 -0.2431
 1026SOL     H129277   3.471   3.083   6.163  0.9336 -0.4373 -0.4603
 1026SOL     H229278   3.501   3.209   6.241  1.9642 -0.6229 -0.5479
 1027SOL    OH229279   6.768   4.959   0.378 -0.2458 -0.4144 -0.3399
 1027SOL     H129280   6.735   4.952   0.467  0.0293  1.4386 -0.0869
 1027SOL     H229281   6.863   4.951   0.387 -0.1994  0.0259 -0.4447
 1028SOL    OH229282   0.133   6.948   7.477 -0.0317 -0.3980  0.4380
 1028SOL     H129283   0.197   6.935   7.547  0.3969 -0.2503  0.0692
 1028SOL     H229284   0.149   7.036   7.445  1.1637 -1.2285 -1.2704
 1029SOL    OH229285   0.610   6.515   1.631  0.2280  0.6355 -0.1223
 1029SOL     H129286   0.597   6.559   1.716 -2.2451  3.6380 -1.9518
 1029SOL     H229287   0.694   6.549   1.600  1.1937 -0.5536  1.1497
 1030SOL    OH229288   7.088   6.702   0.314  0.0358 -0.3855  0.3169
 1030SOL     H129289   7.153   6.670   0.376 -0.7819  0.0641  1.4059
 1030SOL     H229290   7.033   6.625   0.296  0.3682 -0.5565  0.0102
 1031SOL    OH229291   7.779   7.489   0.558 -0.0779 -0.4971 -0.6490
 1031SOL     H129292   7.873   7.478   0.539  0.1717  2.6141 -1.5029
 1031SOL     H229293   7.736   7.461   0.477  0.2770  0.4650 -1.1844
 1032SOL    OH229294   3.698   3.969   1.622  0.1696  0.2116  0.3435
 1032SOL     H129295   3.780   3.942   1.580  1.6820  1.3011  2.5035
 1032SOL     H229296   3.724   4.035   1.687 -2.4889  0.9983  0.6910
 1033SOL    OH229297   2.857   1.678   6.950  0.0343 -0.2253 -0.2684
 1033SOL     H129298   2.949   1.657   6.969  0.6208  2.2653 -0.2063
 1033SOL     H229299   2.807   1.624   7.010  1.5242 -0.4125  0.8322
 1034SOL    OH229300   6.193   3.838   7.500  0.1076 -0.2543  0.6014
 1034SOL     H129301   6.134   3.763   7.496  0.3520 -0.5269  1.9877
 1034SOL     H229302   6.265   3.814   7.441 -0.0649 -0.8855  0.6428
 1035SOL    OH229303   6.400   0.982   1.343  0.1844 -0.0400 -0.5216
 1035SOL     H129304   6.418   1.066   1.384 -0.1582  0.4073 -1.2695
 1035SOL     H229305   6.481   0.958   1.298  0.3584 -0.2284 -0.1077
 1036SOL    OH229306   3.697   4.629   1.176 -0.3240 -0.2716 -0.3913
 1036SOL     H129307   3.630   4.696   1.167 -0.8913 -0.9357 -1.1061
 1036SOL     H229308   3.654   4.548   1.151  1.2119 -0.4485 -2.5448
 1037SOL    OH229309   5.248   4.416   1.937 -0.3597 -0.4157 -0.3103
 1037SOL     H129310   5.248   4.379   2.025 -1.1263 -1.5953 -0.8024
 1037SOL     H229311   5.200   4.353   1.883  1.2685 -0.3679 -1.8737
 1038SOL    OH229312   7.740   6.174   5.862 -0.1472  0.1562 -0.3365
 1038SOL     H129313   7.817   6.230   5.862  0.4304 -0.6220  0.6134
 1038SOL     H229314   7.733   6.143   5.953 -1.3603 -0.0695 -0.4959
 1039SOL    OH229315   3.059   4.576   6.754 -0.2612 -0.5701 -0.7340
 1039SOL     H129316   3.062   4.669   6.734 -2.9168 -0.4964 -0.9843
 1039SOL     H229317   3.084   4.532   6.673 -0.7115 -0.1016 -1.1257
 1040SOL    OH229318   2.939   7.793   7.350 -0.5022 -0.6580  0.1395
 1040SOL     H129319   2.887   7.798   7.431 -1.0826 -0.3698 -0.2471
 1040SOL     H229320   2.878   7.819   7.281  0.8455  2.1412 -0.0445
 1041SOL    OH229321   5.996   1.000   7.044  0.2545 -0.9288  0.1915
 1041SOL     H129322   6.080   1.003   7.090  0.5411  0.2150 -0.3868
 1041SOL     H229323   5.983   0.907   7.026  0.3200 -1.3505  2.2172
 1042SOL    OH229324   1.429   1.883   1.618  0.0430  0.0576 -0.0500
 1042SOL     H129325   1.334   1.877   1.629 -0.0456 -0.1845 -0.9643
 1042SOL     H229326   1.451   1.814   1.556  1.0728 -1.1339  1.6219
 1043SOL    OH229327   1.195   5.526   1.404 -0.1876  1.1491 -0.1505
 1043SOL     H129328   1.112   5.572   1.417 -0.3281  0.0342  3.2858
 1043SOL     H229329   1.171   5.443   1.362 -0.9054  0.5347  1.4546
 1044SOL    OH229330   7.490   7.392   1.129 -0.4840 -0.4607  0.5446
 1044SOL     H129331   7.453   7.428   1.049  0.0956 -1.1151 -0.0177
 1044SOL     H229332   7.492   7.297   1.115  2.3834 -0.3925  0.1038
 1045SOL    OH229333   2.891   1.282   6.636 -0.2183  0.4347 -0.1500
 1045SOL     H129334   2.915   1.189   6.634  0.1726  0.5440 -1.0203
 1045SOL     H229335   2.814   1.286   6.691  0.0010 -0.3589  0.2162
 1046SOL    OH229336   1.071   6.314   0.600 -0.4970  0.1362  0.0790
 1046SOL     H129337   1.121   6.271   0.669 -1.9367 -0.0072  1.0718
 1046SOL     H229338   1.096   6.269   0.520  1.2958  0.3903  0.4838
 1047SOL    OH229339   2.797   6.232   7.170 -0.0267  0.2536  0.0698
 1047SOL     H129340   2.815   6.313   7.123  0.6426  0.3651  0.5076
 1047SOL     H229341   2.873   6.176   7.150  0.1212  0.1967  0.7824
 1048SOL    OH229342   4.450   0.620   1.151 -0.4604  0.8398 -0.0617
 1048SOL     H129343   4.538   0.583   1.149 -0.4483  0.9378 -1.3041
 1048SOL     H229344   4.435   0.640   1.244  0.3212 -0.3724  0.3389
 1049SOL    OH229345   2.665   2.159   0.252  0.0085 -0.2296  0.5055
 1049SOL     H129346   2.614   2.174   0.172 -0.9745 -1.0753  0.9660
 1049SOL     H229347   2.600   2.143   0.320  0.8747 -0.8160  1.2072
 1050SOL    OH229348   0.011   5.052   1.304 -1.0087 -0.4028 -0.4885
 1050SOL     H129349   0.068   5.129   1.304  1.2241 -1.9965  0.3892
 1050SOL     H229350   0.069   4.979   1.329 -3.3465 -2.1506  0.0125
 1051SOL    OH229351   7.006   3.047   2.200 -0.2371 -0.8113  0.2881
 1051SOL     H129352   6.942   3.061   2.270 -1.3706 -0.8486 -0.7469
 1051SOL     H229353   7.058   2.973   2.231  0.7933  0.6456  2.1758
 1052SOL    OH229354   3.680   1.056   7.220  0.0416  0.2921 -0.1986
 1052SOL     H129355   3.680   1.149   7.195  0.4245 -0.4343 -3.0219
 1052SOL     H229356   3.763   1.022   7.187 -0.5422 -1.3025 -0.0390
 1053SOL    OH229357   0.584   3.320   1.219  0.5687  0.5598  0.1104
 1053SOL     H129358   0.588   3.409   1.254  2.0672  0.1488  1.0426
 1053SOL     H229359   0.578   3.264   1.296 -0.0997 -0.1591 -0.4623
 1054SOL    OH229360   1.927   4.055   7.434 -0.2556 -0.2941 -0.3486
 1054SOL     H129361   1.873   4.006   7.373  0.8466 -0.3667 -1.2735
 1054SOL     H229362   2.012   4.064   7.390  0.1914  0.6449  0.6750
 1055SOL    OH229363   2.012   6.742   7.540  0.1444 -0.4538 -0.1478
 1055SOL     H129364   2.054   6.702   7.464  1.0376  0.5518 -0.1894
 1055SOL     H229365   2.031   6.835   7.532 -2.3622  0.0845 -0.3257
 1056SOL    OH229366   6.730   6.998   1.126  0.8602  0.4244  0.6424
 1056SOL     H129367   6.695   7.033   1.044 -1.5853 -0.0290  1.4335
 1056SOL     H229368   6.713   7.066   1.190  1.3387  0.1391  1.0767
 1057SOL    OH229369   6.201   1.382   8.238  0.0311 -0.1180 -0.8625
 1057SOL     H129370   6.166   1.326   8.308 -0.5345  0.8896 -0.3359
 1057SOL     H229371   6.124   1.427   8.203  0.3990 -0.1391 -1.7182
 1058SOL    OH229372   1.236   7.373   0.109  0.2549 -0.3987  0.0016
 1058SOL     H129373   1.313   7.410   0.153 -0.5630  2.1576 -0.6713
 1058SOL     H229374   1.248   7.393   0.017 -2.1048  1.7032  0.1050
 1059SOL    OH229375   7.789   4.912   2.234  0.9581 -0.3964  0.3454
 1059SOL     H129376   7.704   4.928   2.274  0.9133 -1.4503  0.6851
 1059SOL     H229377   7.836   4.995   2.242 -0.4436  0.5495 -0.8738
 1060SOL    OH229378   2.392   4.930   1.035  0.5972 -0.1251 -0.3418
 1060SOL     H129379   2.356   4.989   1.101 -0.7089  0.9658 -1.9861
 1060SOL     H229380   2.487   4.942   1.043  0.4413  0.3511  1.0068
 1061SOL    OH229381   6.125   0.743   7.342  0.0669  0.0477  0.4402
 1061SOL     H129382   6.195   0.723   7.279  0.7054  1.7887  0.5704
 1061SOL     H229383   6.111   0.661   7.388  1.8905 -0.3980  0.2603
 1062SOL    OH229384   4.527   7.179   2.084  0.1616  0.2110 -0.2548
 1062SOL     H129385   4.447   7.230   2.098 -0.0911 -0.1387 -0.4221
 1062SOL     H229386   4.589   7.241   2.046 -0.5610  0.0717 -1.6856
 1063SOL    OH229387   1.826   5.646   0.368 -0.1732 -0.3793  0.3412
 1063SOL     H129388   1.852   5.732   0.334 -0.3594 -0.2460  0.5363
 1063SOL     H229389   1.811   5.661   0.461 -0.4799 -0.5624  0.3211
 1064SOL    OH229390   5.305   5.826   7.845 -0.4921 -0.1940  0.1791
 1064SOL     H129391   5.265   5.830   7.932 -1.3310 -2.5972 -0.0680
 1064SOL     H229392   5.232   5.825   7.784  0.0983  2.0218 -0.6260
 1065SOL    OH229393   6.503   3.538   1.524 -0.1367  0.1539  0.4651
 1065SOL     H129394   6.494   3.633   1.528  0.4248  0.2499 -0.5657
 1065SOL     H229395   6.435   3.510   1.463  0.5206  0.0075 -0.1923
 1066SOL    OH229396   3.520   5.184   7.170  0.3815  0.4833  0.0913
 1066SOL     H129397   3.600   5.218   7.209  0.6105  2.4196 -1.9348
 1066SOL     H229398   3.531   5.089   7.169  0.7973  0.4339  3.6734
 1067SOL    OH229399   3.719   1.280   5.951  0.1600  0.0769 -0.3060
 1067SOL     H129400   3.645   1.262   5.893  0.7710  0.7577 -1.3035
 1067SOL     H229401   3.683   1.338   6.018 -0.8340 -1.6175  0.6809
 1068SOL    OH229402   0.711   4.860   7.473 -0.3155  0.1712 -0.1834
 1068SOL     H129403   0.717   4.801   7.398  1.4327  1.5994 -1.2120
 1068SOL     H229404   0.623   4.847   7.507 -0.6780 -1.4601 -1.6708
 1069SOL    OH229405   1.162   4.074   2.438 -0.1319 -0.1039  0.2594
 1069SOL     H129406   1.241   4.085   2.386  1.1351  0.5282  2.2748
 1069SOL     H229407   1.186   4.011   2.506 -1.8534 -1.1496 -0.0447
 1070SOL    OH229408   1.514   6.258   2.411  0.5120 -0.0834 -0.1578
 1070SOL     H129409   1.602   6.285   2.385  0.7768  0.2235  1.0486
 1070SOL     H229410   1.459   6.277   2.334  1.4041  0.1608 -0.7386
 1071SOL    OH229411   1.318   5.885   1.480  0.2988  0.7224 -0.7259
 1071SOL     H129412   1.345   5.976   1.490 -1.2729  1.2319 -1.0206
 1071SOL     H229413   1.244   5.875   1.540 -0.5419  0.0868 -1.8482
 1072SOL    OH229414   5.091   0.845   2.103 -0.1857 -0.1026 -0.3138
 1072SOL     H129415   5.179   0.878   2.120  0.0452 -1.1860  0.6640
 1072SOL     H229416   5.033   0.921   2.114  0.4533  0.2360  0.7064
 1073SOL    OH229417   0.698   0.951  -0.006  0.1249  0.3796 -0.2303
 1073SOL     H129418   0.671   0.870   0.036 -0.1113  0.4793 -0.1918
 1073SOL     H229419   0.721   1.010   0.066  1.0915  0.0704 -0.2783
 1074SOL    OH229420   0.963   0.915   0.258  0.6899 -0.1361 -0.1428
 1074SOL     H129421   0.961   0.836   0.311 -0.2244 -1.3726 -1.9612
 1074SOL     H229422   0.995   0.885   0.173 -0.0950  1.3643 -0.9819
 1075SOL    OH229423   7.492   0.958   2.537 -0.0536  0.2152 -0.1741
 1075SOL     H129424   7.562   0.938   2.476 -0.5345 -0.2150 -0.5830
 1075SOL     H229425   7.412   0.925   2.496 -0.5354  0.8902  0.1842
 1076SOL    OH229426   7.680   0.661   7.709  0.0476 -0.6952  0.1861
 1076SOL     H129427   7.765   0.703   7.723  0.0052 -0.3263 -0.6482
 1076SOL     H229428   7.700   0.581   7.660 -0.2309  0.2268 -1.4986
 1077SOL    OH229429   0.031   6.025   7.946 -0.2230 -0.2153  0.2184
 1077SOL     H129430   0.096   5.970   7.990  0.1375  1.1653  1.4591
 1077SOL     H229431  -0.012   6.073   8.017  1.0200  2.7684 -0.9763
 1078SOL    OH229432   4.233   0.573   0.182  0.5308 -0.7027  1.0193
 1078SOL     H129433   4.144   0.576   0.149  0.8867 -0.1041  0.0905
 1078SOL     H229434   4.245   0.656   0.229  0.3469 -1.1271  1.8353
 1079SOL    OH229435   2.078   5.827   1.570  0.0048  0.4929  0.1346
 1079SOL     H129436   2.020   5.798   1.500 -0.2146 -1.2036  0.9763
 1079SOL     H229437   2.152   5.767   1.565 -0.1821  0.1191  1.5518
 1080SOL    OH229438   2.047   7.738   6.440 -0.1293  0.1614  0.1136
 1080SOL     H129439   1.970   7.793   6.453  0.3611  0.8592  0.1455
 1080SOL     H229440   2.101   7.787   6.377  1.2918  0.7416  1.7348
 1081SOL    OH229441   3.039   7.202   7.902 -0.5094 -1.0184 -0.5300
 1081SOL     H129442   2.994   7.135   7.954 -1.6958  2.3638  3.0215
 1081SOL     H229443   3.120   7.159   7.874 -0.9850 -3.8150  2.0344
 1082SOL    OH229444   2.068   0.205   0.049  0.4551  0.1789 -0.0624
 1082SOL     H129445   2.157   0.182   0.076 -0.0701 -1.2027  0.5034
 1082SOL     H229446   2.036   0.128   0.003 -0.6040  0.5284  0.0724
 1083SOL    OH229447   5.226   6.992   7.201 -0.4113 -0.8121  0.4105
 1083SOL     H129448   5.203   7.055   7.269  0.0102 -0.6216  0.3802
 1083SOL     H229449   5.240   7.045   7.123 -0.2299 -0.9563  0.3426
 1084SOL    OH229450   3.898   3.602   7.153 -0.1211 -0.2621  0.2510
 1084SOL     H129451   3.868   3.523   7.109 -0.2107 -1.2155  1.9823
 1084SOL     H229452   3.966   3.637   7.096  1.0039 -2.4324  0.2043
 1085SOL    OH229453   0.881   3.870   6.969  0.0231 -0.5600 -0.8674
 1085SOL     H129454   0.908   3.962   6.966  0.5594 -0.6366  1.1299
 1085SOL     H229455   0.864   3.847   6.877 -0.8606  1.7370 -1.3003
 1086SOL    OH229456   1.511   6.429   2.026 -0.0322  0.4046 -0.5040
 1086SOL     H129457   1.580   6.381   2.071 -1.3025 -0.9154  0.0912
 1086SOL     H229458   1.438   6.430   2.089 -2.6555 -3.4690 -3.3106
 1087SOL    OH229459   1.434   0.220   8.127  0.5546  0.2556 -0.4641
 1087SOL     H129460   1.506   0.175   8.084  1.4525 -0.4972  1.7259
 1087SOL     H229461   1.355   0.181   8.089  1.3234 -1.2599 -0.5542
 1088SOL    OH229462   5.840   3.067   6.660 -0.2341  0.2772  0.5006
 1088SOL     H129463   5.745   3.059   6.651 -0.0937  0.7079 -1.6207
 1088SOL     H229464   5.854   3.157   6.691 -0.5207  0.2029  0.8434
 1089SOL    OH229465   5.853   7.118   0.261  0.1339  0.0234  0.1269
 1089SOL     H129466   5.907   7.179   0.210 -1.8574  0.5026 -1.4845
 1089SOL     H229467   5.845   7.040   0.206  0.2551 -0.5454  0.9077
 1090SOL    OH229468   6.366   3.943   1.036  0.2446 -0.0091 -0.9660
 1090SOL     H129469   6.378   3.989   0.953  0.9994 -2.0682 -2.0234
 1090SOL     H229470   6.415   3.996   1.099  1.8304  0.1981 -2.3270
 1091SOL    OH229471   5.989   6.297   1.332 -0.0613 -0.7147  0.7537
 1091SOL     H129472   6.052   6.337   1.272 -0.6556 -0.9851 -0.0687
 1091SOL     H229473   6.020   6.321   1.419 -1.3694  3.1205  0.2930
 1092SOL    OH229474   3.255   0.801   7.652 -0.1510  0.3583  0.1298
 1092SOL     H129475   3.214   0.863   7.713 -1.6221  0.5601 -1.0192
 1092SOL     H229476   3.270   0.723   7.704 -1.0931  0.6401  0.8531
 1093SOL    OH229477   6.706   6.869   7.102 -0.5075 -0.1981  0.0262
 1093SOL     H129478   6.681   6.929   7.172 -2.2627 -0.9856  0.0915
 1093SOL     H229479   6.671   6.784   7.129 -1.7489 -0.3920 -2.0764
 1094SOL    OH229480   5.957   6.556   0.919 -0.2977 -0.2589  0.3906
 1094SOL     H129481   5.985   6.583   0.832  0.5006 -1.8960  0.1265
 1094SOL     H229482   6.020   6.598   0.978  0.4177 -0.8344  0.0419
 1095SOL    OH229483   6.479   4.338   0.192 -0.2465 -0.4402  0.2093
 1095SOL     H129484   6.464   4.287   0.112  0.8255  0.3256 -0.4855
 1095SOL     H229485   6.392   4.345   0.232 -0.7181 -1.2147 -0.6409
 1096SOL    OH229486   4.405   4.884   7.106 -0.9702  0.0660 -0.7952
 1096SOL     H129487   4.380   4.976   7.112  0.3195  0.5877 -2.8145
 1096SOL     H229488   4.448   4.877   7.021  1.5112 -1.7951  0.5580
 1097SOL    OH229489   5.606   3.875   0.512 -0.1398  0.1070  0.2275
 1097SOL     H129490   5.527   3.925   0.491  0.5064  0.7775 -0.6453
 1097SOL     H229491   5.654   3.871   0.429  0.1566 -1.3493  0.4629
 1098SOL    OH229492   3.795   2.245   5.951 -0.2247 -0.5589 -0.4058
 1098SOL     H129493   3.883   2.222   5.982 -0.8450 -1.1568  0.9752
 1098SOL     H229494   3.796   2.223   5.858  1.5349  0.8019 -0.7332
 1099SOL    OH229495   5.425   0.322   7.723  0.5534 -0.7001 -0.4456
 1099SOL     H129496   5.340   0.316   7.680 -0.0728  1.0496  0.5106
 1099SOL     H229497   5.485   0.347   7.653 -0.5648  2.7641 -0.2691
 1100SOL    OH229498   3.294   3.237   7.285  0.8425  0.4802  0.3074
 1100SOL     H129499   3.358   3.177   7.246 -0.3551 -1.5775  1.4298
 1100SOL     H229500   3.345   3.294   7.342  1.6312 -1.4505  1.5633
 1101SOL    OH229501   0.010   7.419   1.015  0.2794 -0.2794 -0.3038
 1101SOL     H129502  -0.037   7.336   1.024 -0.0293  0.0160  0.9543
 1101SOL     H229503   0.095   7.403   1.055  0.4187 -0.1653 -0.5589
 1102SOL    OH229504   5.809   0.990   0.225 -0.4285  0.0684 -0.0279
 1102SOL     H129505   5.865   1.054   0.270 -0.6092  0.1909  0.0252
 1102SOL     H229506   5.864   0.913   0.214  0.4131  0.8880 -1.8138
 1103SOL    OH229507   5.201   4.234   7.428 -0.1552 -0.2444 -0.5176
 1103SOL     H129508   5.140   4.241   7.355  1.3212 -1.2582 -1.8972
 1103SOL     H229509   5.228   4.142   7.428  2.5700  0.5057 -0.9602
 1104SOL    OH229510   0.719   7.731   0.964 -0.4429  0.2065  0.5454
 1104SOL     H129511   0.738   7.638   0.974 -0.9418 -0.0461 -0.6784
 1104SOL     H229512   0.676   7.737   0.879 -0.5542  1.5390  0.6848
 1105SOL    OH229513   0.436   2.220   0.752 -0.0557  0.5614  0.6179
 1105SOL     H129514   0.358   2.220   0.696 -0.2074 -0.2063  0.8215
 1105SOL     H229515   0.432   2.136   0.798 -0.0871  1.3109  2.0114
 1106SOL    OH229516   1.297   6.561   6.880 -0.0942 -0.1124  0.2265
 1106SOL     H129517   1.231   6.615   6.837 -3.7365 -2.5161  2.4890
 1106SOL     H229518   1.334   6.618   6.947 -0.7696  0.9084 -0.2492
 1107SOL    OH229519   5.810   6.375   8.013 -0.2742  0.0883  0.0473
 1107SOL     H129520   5.738   6.363   8.076  0.1790  0.1202  0.5825
 1107SOL     H229521   5.889   6.360   8.065  0.0697 -0.8976 -0.7546
 1108SOL    OH229522   1.339   3.198   1.130 -0.2297 -0.5298  0.2991
 1108SOL     H129523   1.389   3.195   1.212  0.2898  0.2500  0.0057
 1108SOL     H229524   1.405   3.201   1.061 -0.6837  0.0860 -0.1074
 1109SOL    OH229525   2.270   0.063   0.780  0.5692 -0.1944  0.4428
 1109SOL     H129526   2.210  -0.009   0.797  0.7326 -0.5078 -0.2963
 1109SOL     H229527   2.248   0.093   0.692  1.6962 -0.5205  0.0298
 1110SOL    OH229528   1.406   1.454   7.970 -0.9774 -0.3172 -0.3982
 1110SOL     H129529   1.386   1.510   7.895 -0.4647 -0.1678 -0.4250
 1110SOL     H229530   1.354   1.491   8.041 -0.6910  0.1589 -0.4330
 1111SOL    OH229531   7.146   2.231   2.252 -1.0706  0.0431 -0.0173
 1111SOL     H129532   7.136   2.142   2.286 -0.1987  0.6755  1.9822
 1111SOL     H229533   7.235   2.234   2.218 -1.5080 -0.2004 -1.1977
 1112SOL    OH229534   5.605   2.782   0.322  0.1108 -0.2142 -0.2774
 1112SOL     H129535   5.591   2.727   0.399 -1.4665 -4.2648 -3.3389
 1112SOL     H229536   5.518   2.817   0.301  1.0384  3.3785  1.4558
 1113SOL    OH229537   1.513   4.513   0.616  0.1535  0.2631  0.0108
 1113SOL     H129538   1.449   4.566   0.664  0.8212  0.5779  0.5571
 1113SOL     H229539   1.518   4.431   0.665  0.4785  0.3993  0.2041
 1114SOL    OH229540   0.652   7.952   1.663  0.5318  0.5996  0.1522
 1114SOL     H129541   0.738   7.910   1.655  1.0332  1.7883 -0.8831
 1114SOL     H229542   0.595   7.899   1.606  0.4971 -0.3510  1.0492
 1115SOL    OH229543   2.123   7.812   7.883 -0.0415 -0.3346 -0.3742
 1115SOL     H129544   2.090   7.901   7.876  0.1710 -0.3548 -1.6795
 1115SOL     H229545   2.111   7.789   7.975  0.6029  1.3039  0.1272
 1116SOL    OH229546   1.360   3.300   5.844  0.0161  0.2590 -0.2388
 1116SOL     H129547   1.440   3.287   5.794  2.4475  3.1707  2.6470
 1116SOL     H229548   1.378   3.261   5.929 -1.7586  0.6733  0.3527
 1117SOL    OH229549   7.476   7.447   6.718  1.3249  0.0237 -0.1521
 1117SOL     H129550   7.407   7.491   6.669  1.2061 -0.6701 -0.6179
 1117SOL     H229551   7.475   7.487   6.805 -1.2360 -1.6091  0.6149
 1118SOL    OH229552   6.265   4.961   1.014  0.0999  0.1144  0.0698
 1118SOL     H129553   6.207   5.007   1.074  0.7053  0.9274  0.0431
 1118SOL     H229554   6.212   4.946   0.936  0.4738  2.5891 -0.7133
 1119SOL    OH229555   7.467   6.529   0.280  0.0027 -0.1900 -0.4792
 1119SOL     H129556   7.525   6.507   0.353 -0.0505  1.0979 -0.0384
 1119SOL     H229557   7.398   6.583   0.319 -1.0746 -1.0615 -1.1410
 1120SOL    OH229558   0.377   5.455   7.823 -0.2382 -0.4852  0.0252
 1120SOL     H129559   0.436   5.488   7.756  0.9513 -0.0752  1.2357
 1120SOL     H229560   0.385   5.359   7.818  0.7911 -0.4262  0.3857
 1121SOL    OH229561   6.803   3.196   0.095 -0.0488  0.7384  0.2124
 1121SOL     H129562   6.720   3.242   0.083  0.4171  1.6251  0.3769
 1121SOL     H229563   6.869   3.265   0.103  0.6030  0.0596  0.8646
 1122SOL    OH229564   4.163   6.821   1.884 -0.6135 -0.7203  0.1048
 1122SOL     H129565   4.139   6.729   1.891 -2.9270 -0.1194  0.6963
 1122SOL     H229566   4.120   6.862   1.959  0.3126  0.8564 -0.2049
 1123SOL    OH229567   7.551   5.005   8.035 -0.6525 -0.7596  0.2882
 1123SOL     H129568   7.632   4.954   8.034  0.9596  1.7208 -1.2053
 1123SOL     H229569   7.487   4.948   7.991  0.4175 -2.4982  0.9209
 1124SOL    OH229570   1.679   1.332   8.025  0.1274  0.7503  0.3274
 1124SOL     H129571   1.584   1.342   8.017  0.0645  0.3671  0.6025
 1124SOL     H229572   1.707   1.409   8.075  0.1134  1.4725 -0.7669
 1125SOL    OH229573   1.563   6.511   6.760 -0.4723 -0.0486  0.3844
 1125SOL     H129574   1.472   6.530   6.781 -1.1381 -1.2913 -1.2792
 1125SOL     H229575   1.579   6.558   6.679 -0.3733 -1.7583 -0.6119
 1126SOL    OH229576   2.470   3.653   0.104  0.5852  0.5025 -0.3602
 1126SOL     H129577   2.384   3.687   0.077  0.0329 -1.2295 -0.8830
 1126SOL     H229578   2.450   3.568   0.144  2.0435  0.1395 -0.3853
 1127SOL    OH229579   2.152   4.766   0.842  0.3153 -0.3652 -0.3973
 1127SOL     H129580   2.199   4.839   0.803 -0.2721  0.0514 -0.3421
 1127SOL     H229581   2.220   4.705   0.870  0.7891 -0.1118 -0.9744
 1128SOL    OH229582   6.618   3.925   8.128 -0.1790 -0.4348  0.3497
 1128SOL     H129583   6.594   3.982   8.055 -1.0605  0.7989  1.5703
 1128SOL     H229584   6.713   3.934   8.135 -0.4585  2.1053  1.4645
 1129SOL    OH229585   6.073   3.751   0.153  0.0295  0.0676  0.0563
 1129SOL     H129586   6.162   3.745   0.119  0.4080  0.3891  0.9724
 1129SOL     H229587   6.057   3.845   0.162  0.0545 -0.0130  1.0507
 1130SOL    OH229588   0.038   5.237   1.982  0.2742  0.2960 -0.7434
 1130SOL     H129589   0.074   5.319   2.017  2.5502 -0.8412 -0.3054
 1130SOL     H229590   0.015   5.186   2.060  1.0793 -0.4088 -0.9548
 1131SOL    OH229591   7.342   1.889   0.713  0.4318  1.0928 -0.0385
 1131SOL     H129592   7.330   1.819   0.778  0.9714 -0.1636 -1.2533
 1131SOL     H229593   7.398   1.953   0.756  0.5138  0.4225  0.8660
 1132SOL    OH229594   6.742   1.300   1.398  0.2743 -0.0355 -0.5818
 1132SOL     H129595   6.691   1.301   1.317 -1.8963 -0.8501  0.7088
 1132SOL     H229596   6.799   1.224   1.391 -0.0759 -0.2355 -1.2559
 1133SOL    OH229597   2.581   1.541   5.587 -0.1736  0.0750  0.0173
 1133SOL     H129598   2.653   1.585   5.632  0.3567  0.8923 -1.5983
 1133SOL     H229599   2.623   1.472   5.537 -0.3652  1.2940 -1.8541
 1134SOL    OH229600   1.290   2.105   8.150  0.7181 -0.5253  0.3363
 1134SOL     H129601   1.364   2.082   8.093  0.5007  0.0321 -0.1683
 1134SOL     H229602   1.318   2.185   8.194  0.6133 -0.5881  0.5161
 1135SOL    OH229603   7.518   6.025   1.078 -0.7345 -0.1449 -0.3603
 1135SOL     H129604   7.470   6.017   1.161 -0.4610  0.7000 -0.1155
 1135SOL     H229605   7.527   5.935   1.047  0.2819 -0.5838  1.1660
 1136SOL    OH229606   4.271   3.163   7.636  0.0612 -0.0722 -0.7581
 1136SOL     H129607   4.228   3.085   7.601  1.9790 -1.2299 -0.6294
 1136SOL     H229608   4.363   3.138   7.642  0.5407  1.8753  0.2531
 1137SOL    OH229609   2.678   3.886   2.454  0.1159  0.0980 -0.1618
 1137SOL     H129610   2.590   3.869   2.489  0.7910 -1.1106  0.9743
 1137SOL     H229611   2.667   3.879   2.359 -1.4419  2.0311 -0.1584
 1138SOL    OH229612   1.906   5.977   7.734 -0.7668  0.5494 -0.4458
 1138SOL     H129613   1.888   6.068   7.757 -2.2510  0.3061 -0.6104
 1138SOL     H229614   1.825   5.946   7.693 -0.6045 -1.1066  0.4475
 1139SOL    OH229615   3.574   4.841   7.552  0.6860 -0.3460 -0.3529
 1139SOL     H129616   3.479   4.849   7.545  0.8207  0.9793 -0.8970
 1139SOL     H229617   3.589   4.800   7.637 -0.4166 -2.0899 -0.9785
 1140SOL    OH229618   0.529   1.690   0.610 -0.2006  0.4575  0.1041
 1140SOL     H129619   0.529   1.783   0.589  0.8323  0.6462  0.8884
 1140SOL     H229620   0.591   1.682   0.682  0.5940 -0.9883 -0.7102
 1141SOL    OH229621   3.809   2.559   0.180 -0.5969 -0.2089 -0.0331
 1141SOL     H129622   3.857   2.627   0.226 -0.9892 -0.1054  0.2300
 1141SOL     H229623   3.874   2.493   0.158 -0.2698  0.1112 -0.0226
 1142SOL    OH229624   1.998   7.306   7.412 -0.0247  0.3605  0.1579
 1142SOL     H129625   1.951   7.265   7.485  0.6474 -0.5297  0.0980
 1142SOL     H229626   1.932   7.359   7.367 -0.8365 -0.4380  0.4049
 1143SOL    OH229627   4.856   6.308   6.974 -0.0127  0.1989  0.1178
 1143SOL     H129628   4.941   6.343   7.000  0.1240  0.3180 -0.4787
 1143SOL     H229629   4.834   6.246   7.043  0.7654 -0.1556  0.0656
 1144SOL    OH229630   0.831   4.686   6.566 -0.3878  0.7108  0.3548
 1144SOL     H129631   0.858   4.669   6.476  0.5519  0.0444  0.7513
 1144SOL     H229632   0.865   4.611   6.615 -2.4069  0.1790  0.9720
 1145SOL    OH229633   6.323   1.053   6.901  0.0609 -0.4890 -0.8616
 1145SOL     H129634   6.392   0.992   6.926  2.2578  1.3907 -2.0839
 1145SOL     H229635   6.281   1.077   6.984  0.8333 -1.7123 -0.1051
 1146SOL    OH229636   1.474   5.515   1.338 -0.2864  0.7849  0.2915
 1146SOL     H129637   1.466   5.447   1.271  2.1671 -1.1195  1.8774
 1146SOL     H229638   1.391   5.563   1.333 -0.7277 -0.2149 -3.1016
 1147SOL    OH229639   1.641   7.250   0.676 -0.1704 -0.1354  0.0925
 1147SOL     H129640   1.599   7.320   0.728 -0.2395 -0.3317  0.3020
 1147SOL     H229641   1.623   7.170   0.725 -0.6709 -0.3917 -0.4926
 1148SOL    OH229642   5.472   4.811   7.683 -0.1315 -0.3678 -0.8916
 1148SOL     H129643   5.427   4.727   7.670 -3.1839  0.7710  1.6250
 1148SOL     H229644   5.482   4.818   7.778  4.0053  0.2307 -1.2864
 1149SOL    OH229645   4.453   0.863   1.041 -0.3183 -0.3617  0.6322
 1149SOL     H129646   4.436   0.776   1.075  0.1475 -0.5169  0.4790
 1149SOL     H229647   4.511   0.904   1.105 -1.8217  0.4240  1.5167
 1150SOL    OH229648   5.568   2.347   0.781 -0.3401 -0.2235 -0.1246
 1150SOL     H129649   5.533   2.296   0.854  0.0358  1.0063  0.9454
 1150SOL     H229650   5.491   2.377   0.733 -0.5924 -1.0030 -0.1995
 1151SOL    OH229651   6.317   7.267   2.030 -0.0680 -0.8124  0.1985
 1151SOL     H129652   6.311   7.342   2.088  1.2010 -0.1239 -0.5517
 1151SOL     H229653   6.227   7.233   2.025 -1.0006  1.6810 -0.8408
 1152SOL    OH229654   3.869   5.838   1.583  0.4411 -0.6093 -0.3181
 1152SOL     H129655   3.884   5.891   1.505 -0.6305  1.3268  0.7560
 1152SOL     H229656   3.949   5.848   1.635  0.1687  0.0992 -0.0354
 1153SOL    OH229657   7.397   1.429   2.895 -0.0567 -0.7299 -0.0287
 1153SOL     H129658   7.394   1.510   2.945  1.0904  0.0230 -1.1507
 1153SOL     H229659   7.396   1.360   2.961 -0.0571  0.2180  0.9772
 1154SOL    OH229660   4.180   3.185   0.381 -0.3643 -0.5032  0.6088
 1154SOL     H129661   4.213   3.273   0.401 -0.4274 -0.3231 -0.0581
 1154SOL     H229662   4.108   3.172   0.442 -1.3671  0.5434 -0.3148
 1155SOL    OH229663   2.113   4.348   1.607 -0.0149 -0.1202 -0.6645
 1155SOL     H129664   2.025   4.383   1.622 -0.5271 -1.1231 -1.3321
 1155SOL     H229665   2.119   4.272   1.665 -0.4455 -1.4493 -2.3197
 1156SOL    OH229666   1.295   5.333   0.240 -0.2845  0.3879  0.4442
 1156SOL     H129667   1.232   5.403   0.219 -1.1726 -1.1535 -2.3057
 1156SOL     H229668   1.253   5.253   0.208  2.3792 -0.8978  0.0444
 1157SOL    OH229669   7.839   4.493   8.275 -0.3881 -0.2843 -0.5664
 1157SOL     H129670   7.889   4.520   8.352 -1.2994 -0.3393  0.0508
 1157SOL     H229671   7.873   4.548   8.204  2.2282 -1.9935 -0.7058
 1158SOL    OH229672   4.164   4.865   7.580 -0.3813 -0.0390  0.2020
 1158SOL     H129673   4.167   4.852   7.485 -0.7842  2.3445 -0.1631
 1158SOL     H229674   4.071   4.874   7.600 -0.2637 -0.0592  0.7581
 1159SOL    OH229675   0.998   2.018   6.768 -0.8614  0.1878  0.0501
 1159SOL     H129676   1.038   2.090   6.817 -0.2301  0.3280 -0.6475
 1159SOL     H229677   0.926   2.059   6.720 -2.7376 -0.3236  2.3629
 1160SOL    OH229678   4.129   2.411   6.647 -0.4478 -0.2464 -0.0652
 1160SOL     H129679   4.044   2.446   6.677 -0.4500  2.7915 -3.3674
 1160SOL     H229680   4.193   2.454   6.703 -0.8448  0.4314 -0.1228
 1161SOL    OH229681   3.482   7.371   7.207 -0.7133 -0.2340 -0.1676
 1161SOL     H129682   3.446   7.340   7.291 -0.6301 -1.7192 -0.6704
 1161SOL     H229683   3.576   7.383   7.224 -0.3608 -2.3290 -0.5396
 1162SOL    OH229684   2.800   1.307   1.650 -0.0655  0.3580 -0.3040
 1162SOL     H129685   2.758   1.347   1.726  0.1010 -0.0977  0.0309
 1162SOL     H229686   2.745   1.232   1.628 -0.3919  0.7881 -0.9493
 1163SOL    OH229687   1.937   2.739   2.607 -0.4779 -0.0536  0.4051
 1163SOL     H129688   1.905   2.723   2.518 -2.5543  0.3139  1.0564
 1163SOL     H229689   1.912   2.830   2.625 -1.7262 -0.6927  2.0152
 1164SOL    OH229690   6.236   0.067   0.798  0.0255 -0.2896 -0.6508
 1164SOL     H129691   6.298   0.048   0.868  0.0552 -0.4613 -0.7244
 1164SOL     H229692   6.263   0.154   0.766  0.2854 -0.4029 -0.7448
 1165SOL    OH229693   4.681   5.440   0.246 -0.5714  0.3726 -0.0743
 1165SOL     H129694   4.593   5.467   0.219 -0.7568 -0.3743 -0.2165
 1165SOL     H229695   4.669   5.353   0.285 -0.0948  0.8371  1.1325
 1166SOL    OH229696   1.426   6.826   5.839  0.1353  0.1830  0.1298
 1166SOL     H129697   1.501   6.773   5.814  0.8461 -0.1420  2.8369
 1166SOL     H229698   1.359   6.763   5.865 -0.2031  0.5423  0.1515
 1167SOL    OH229699   4.279   2.579   0.933 -0.7204 -0.2277 -0.1824
 1167SOL     H129700   4.186   2.568   0.913 -0.4519  0.2595 -1.7785
 1167SOL     H229701   4.300   2.668   0.903  0.0309  0.0219  1.0565
 1168SOL    OH229702   1.982   1.309   0.936 -0.8978  0.0488  0.4263
 1168SOL     H129703   2.023   1.224   0.950 -0.7454 -0.4276 -2.5361
 1168SOL     H229704   1.888   1.289   0.927 -0.7725  0.0750 -1.0235
 1169SOL    OH229705   2.659   1.315   5.472  0.6465  0.4394  0.0016
 1169SOL     H129706   2.733   1.273   5.515  1.6695 -0.3689 -2.4677
 1169SOL     H229707   2.596   1.244   5.457  0.2069  0.7566  0.3068
 1170SOL    OH229708   7.839   2.730   5.810  0.6854 -0.7576 -0.1761
 1170SOL     H129709   7.750   2.704   5.788  0.9488 -1.8506  0.0095
 1170SOL     H229710   7.862   2.677   5.887  0.8626  0.8147  0.8868
 1171SOL    OH229711   3.848   2.397   6.737 -0.1904 -0.5465 -0.3951
 1171SOL     H129712   3.756   2.398   6.712  0.1307  0.2594 -1.5948
 1171SOL     H229713   3.867   2.305   6.755 -1.3946 -0.6232  0.5313
 1172SOL    OH229714   0.241   7.392   6.425  0.2290  0.0491 -0.1198
 1172SOL     H129715   0.247   7.482   6.456  0.9457 -0.8661  2.5390
 1172SOL     H229716   0.311   7.384   6.360  0.3326  1.3283 -0.1750
 1173SOL    OH229717   5.073   4.965   1.173 -0.4628  0.5085  0.3986
 1173SOL     H129718   5.047   5.004   1.257 -0.6449 -0.3109  0.7276
 1173SOL     H229719   5.158   5.005   1.154 -0.8338  1.3869  0.5189
 1174SOL    OH229720   1.811   4.143   1.760 -0.1917 -0.0275 -0.0526
 1174SOL     H129721   1.742   4.088   1.797  0.2539 -0.7217 -0.2530
 1174SOL     H229722   1.875   4.153   1.830  0.5862 -1.2309 -0.5668
 1175SOL    OH229723   4.494   4.460   8.258  0.3357  0.1657  0.0071
 1175SOL     H129724   4.553   4.388   8.237  0.0921 -0.4144  1.2607
 1175SOL     H229725   4.534   4.536   8.216  1.0841 -0.5341 -0.5600
 1176SOL    OH229726   7.236   1.020   6.524  0.5520  0.8817  0.1757
 1176SOL     H129727   7.221   1.112   6.501  0.9024  1.4703  2.2195
 1176SOL     H229728   7.171   1.001   6.591 -0.7333 -0.9406 -1.5271
 1177SOL    OH229729   6.847   2.376   7.605 -0.2258  0.0630  0.3135
 1177SOL     H129730   6.837   2.309   7.672 -0.2176 -1.1668 -0.8899
 1177SOL     H229731   6.757   2.404   7.586 -0.3872 -0.9708 -0.5164
 1178SOL    OH229732   0.979   0.005   8.132  0.0606 -0.5192  0.2729
 1178SOL     H129733   1.072   0.010   8.109 -0.0492 -1.4359 -0.3828
 1178SOL     H229734   0.944   0.090   8.105  0.6334 -0.3067  0.1873
 1179SOL    OH229735   5.836   4.485   2.993 -0.0475 -0.4330 -0.0647
 1179SOL     H129736   5.849   4.474   3.087  1.6075 -0.7268 -0.3164
 1179SOL     H229737   5.802   4.574   2.984 -0.4100 -0.4742  0.8164
 1180SOL    OH229738   5.919   3.020   2.870  0.0327 -0.3666  0.3741
 1180SOL     H129739   5.967   2.961   2.813  0.3335 -0.8777  1.1420
 1180SOL     H229740   5.986   3.079   2.906 -0.2611  0.4413 -0.3780
 1181SOL    OH229741   0.760   7.664   7.194  1.0718  0.2065 -0.1333
 1181SOL     H129742   0.838   7.665   7.139  0.3889  0.2818 -1.1105
 1181SOL     H229743   0.700   7.604   7.151 -0.1683  1.6460 -0.4830
 1182SOL    OH229744   7.234   7.774   1.441  0.2513 -0.7309  0.2237
 1182SOL     H129745   7.169   7.756   1.508  0.3859 -1.2685  0.2161
 1182SOL     H229746   7.284   7.849   1.474 -0.7630  0.0682 -0.0526
 1183SOL    OH229747   6.119   0.712   1.210  0.3786  0.2655  0.5236
 1183SOL     H129748   6.121   0.675   1.121  0.0704 -1.1546  1.0985
 1183SOL     H229749   6.187   0.664   1.257  1.4121  1.8909  0.7292
 1184SOL    OH229750   6.850   0.807   0.568  0.6192 -0.1092 -0.4120
 1184SOL     H129751   6.758   0.798   0.545  0.4001  0.7992  0.0806
 1184SOL     H229752   6.855   0.774   0.658  0.6272  0.5401 -0.1697
 1185SOL    OH229753   0.522   1.061   2.081 -0.5105 -0.1411  0.0822
 1185SOL     H129754   0.480   1.026   2.160  0.3123 -1.5896 -0.1084
 1185SOL     H229755   0.605   1.014   2.076 -0.5290 -0.0025 -1.6131
 1186SOL    OH229756   3.748   6.709   7.455 -0.2326 -0.2724 -0.1351
 1186SOL     H129757   3.786   6.621   7.462 -2.1217 -0.9890  1.7969
 1186SOL     H229758   3.780   6.755   7.532 -0.2064  0.3485 -0.5168
 1187SOL    OH229759   5.672   7.242   1.446 -0.4223 -0.1510 -0.2887
 1187SOL     H129760   5.740   7.256   1.380  0.9707  0.4063  1.2191
 1187SOL     H229761   5.662   7.328   1.488 -0.0260 -0.9040  1.3776
 1188SOL    OH229762   5.468   1.281   7.727  0.5541 -0.0752 -0.4981
 1188SOL     H129763   5.558   1.279   7.760  0.1758 -2.6278  0.4613
 1188SOL     H229764   5.467   1.213   7.659 -0.9648 -0.9874  0.4118
 1189SOL    OH229765   4.139   6.432   2.260  0.7449 -0.1043  0.1215
 1189SOL     H129766   4.061   6.439   2.315  0.7488  0.2147  0.0844
 1189SOL     H229767   4.127   6.350   2.212  0.7900 -0.4424  0.6749
 1190SOL    OH229768   7.289   7.410   0.093 -0.1329  0.2387 -0.4549
 1190SOL     H129769   7.230   7.350   0.049 -0.4278 -0.2406  0.5882
 1190SOL     H229770   7.346   7.443   0.024  0.1776 -1.4080 -0.9887
 1191SOL    OH229771   1.295   1.184   6.484  0.2236  0.4217  0.0159
 1191SOL     H129772   1.238   1.153   6.555 -0.8989  0.5267 -0.8335
 1191SOL     H229773   1.366   1.120   6.482 -1.1751 -1.1607 -0.5875
 1192SOL    OH229774   0.864   3.033  -0.013  0.0216 -0.5303 -0.4101
 1192SOL     H129775   0.871   3.061   0.079  0.7481  1.2972 -0.9862
 1192SOL     H229776   0.806   3.098  -0.053 -0.3007 -1.3236 -1.2424
 1193SOL    OH229777   5.564   6.069   2.456 -0.7453  0.0553  0.3660
 1193SOL     H129778   5.487   6.124   2.469  0.0097  1.0090  0.8065
 1193SOL     H229779   5.567   6.014   2.534 -0.9079  0.0844  0.3943
 1194SOL    OH229780   7.300   4.542   7.495  0.5985  0.3147  1.0286
 1194SOL     H129781   7.353   4.618   7.519  0.3404  0.4864  1.0680
 1194SOL     H229782   7.278   4.500   7.578  2.0872 -0.7334  0.9103
 1195SOL    OH229783   0.124   1.805   7.676  0.5112  0.4464 -0.2935
 1195SOL     H129784   0.188   1.822   7.607  1.6355 -0.0508  0.6132
 1195SOL     H229785   0.109   1.710   7.671  0.0467  0.5217 -0.3245
 1196SOL    OH229786   0.749   4.254   1.650  0.1188  0.5862  0.5940
 1196SOL     H129787   0.672   4.297   1.613  0.9078  1.2039 -0.3239
 1196SOL     H229788   0.765   4.180   1.593  2.2498  2.4035 -1.2377
 1197SOL    OH229789   0.703   7.254   7.153  0.3695 -0.5361 -0.1005
 1197SOL     H129790   0.644   7.185   7.124  0.9824 -0.2970 -2.0510
 1197SOL     H229791   0.735   7.294   7.071  1.1423  1.0874  0.9556
 1198SOL    OH229792   7.452   1.220   2.693  0.3368  0.0340 -0.3054
 1198SOL     H129793   7.480   1.156   2.628 -0.8604 -1.2580  0.4301
 1198SOL     H229794   7.515   1.210   2.765 -0.3693 -0.9500  0.1838
 1199SOL    OH229795   7.589   6.160   6.678 -0.4625 -0.0974  0.3164
 1199SOL     H129796   7.608   6.211   6.757 -1.8975 -1.5453  1.6402
 1199SOL     H229797   7.667   6.107   6.664 -0.7004 -0.7870  1.5400
 1200SOL    OH229798   3.375   0.782   0.451 -0.0349  0.0818  0.4506
 1200SOL     H129799   3.396   0.811   0.362 -1.3325  2.0556  0.7484
 1200SOL     H229800   3.324   0.702   0.439 -0.7397  0.6701 -0.6399
 1201SOL    OH229801   6.262   4.039   6.852 -0.7109 -0.0857  0.2067
 1201SOL     H129802   6.279   4.131   6.832 -0.3660 -0.3908 -0.9927
 1201SOL     H229803   6.261   4.034   6.947 -0.6031  1.1392  0.2726
 1202SOL    OH229804   4.548   7.025   6.123 -0.6445  0.2548  0.0829
 1202SOL     H129805   4.521   6.982   6.042 -1.2060  0.3929  0.1884
 1202SOL     H229806   4.533   6.960   6.192  0.6667 -0.1683 -0.0281
 1203SOL    OH229807   6.269   2.362   1.657  0.6874  0.1305  0.2808
 1203SOL     H129808   6.309   2.285   1.615 -0.2273 -0.9824  1.4047
 1203SOL     H229809   6.331   2.433   1.642  0.6763 -0.3630 -2.4298
 1204SOL    OH229810   0.649   3.377   2.053 -0.1564  0.3479  0.1596
 1204SOL     H129811   0.741   3.351   2.063 -0.0347  0.4671 -0.6373
 1204SOL     H229812   0.652   3.454   1.997 -0.8887 -0.7558 -1.4228
 1205SOL    OH229813   0.159   5.473   0.273  0.7671 -0.2901  0.2309
 1205SOL     H129814   0.206   5.390   0.285 -0.5131 -0.7889  1.9275
 1205SOL     H229815   0.075   5.448   0.235  1.0649  0.4057 -0.8883
 1206SOL    OH229816   3.932   5.486   0.934  0.2489 -0.0939  0.2105
 1206SOL     H129817   3.937   5.560   0.994 -1.2442  1.1591 -1.1984
 1206SOL     H229818   3.963   5.520   0.850 -1.0220 -0.8905 -0.5950
 1207SOL    OH229819   3.621   7.108   0.252  0.3804 -0.3865 -0.1884
 1207SOL     H129820   3.535   7.083   0.285 -1.0261 -0.5988 -3.8110
 1207SOL     H229821   3.612   7.200   0.228  1.6944  0.0695  0.9555
 1208SOL    OH229822   2.931   2.272   1.249 -0.5741  0.2846  0.1409
 1208SOL     H129823   2.967   2.186   1.269  0.7191  0.9336  0.6888
 1208SOL     H229824   2.836   2.261   1.258 -0.3307 -0.7103  1.6905
 1209SOL    OH229825   5.999   6.559   6.171  0.4698 -0.1486  0.1223
 1209SOL     H129826   5.944   6.483   6.189  0.8694 -0.5946 -0.4909
 1209SOL     H229827   6.078   6.522   6.131  0.7054  0.5815 -0.0927
 1210SOL    OH229828   1.638   5.397   6.889  0.1003 -0.4913  0.6131
 1210SOL     H129829   1.694   5.472   6.871 -1.4808  0.6432  0.3348
 1210SOL     H229830   1.569   5.431   6.946 -0.0878 -1.9555  1.2866
 1211SOL    OH229831   6.252   2.260   0.450  0.2322  0.0887 -0.0143
 1211SOL     H129832   6.258   2.325   0.380 -0.9328 -1.2046 -1.3742
 1211SOL     H229833   6.174   2.208   0.427  0.7033 -1.2877  1.4346
 1212SOL    OH229834   5.170   3.143   2.548 -0.1234 -0.0987 -0.0206
 1212SOL     H129835   5.140   3.218   2.496 -0.2876  1.0501  1.6922
 1212SOL     H229836   5.090   3.097   2.573 -0.1297  0.0834  0.2958
 1213SOL    OH229837   2.831   4.284   1.185 -0.2825 -0.1821 -0.5023
 1213SOL     H129838   2.749   4.240   1.207  0.7027 -2.6132 -1.4872
 1213SOL     H229839   2.841   4.272   1.091  1.4396 -0.3513 -0.3162
 1214SOL    OH229840   5.593   4.981   6.222 -0.0095 -0.1073 -0.4431
 1214SOL     H129841   5.523   4.930   6.261 -0.6483  0.7699 -0.4143
 1214SOL     H229842   5.671   4.958   6.272 -1.0713  2.0618  2.3380
 1215SOL    OH229843   7.369   7.272   0.353 -0.6128  0.0661  0.4654
 1215SOL     H129844   7.448   7.250   0.304 -0.1698  0.4994  0.9844
 1215SOL     H229845   7.304   7.295   0.286  0.2285  1.4644  0.1241
 1216SOL    OH229846   0.562   0.517   1.171 -0.5752  0.3757 -0.0799
 1216SOL     H129847   0.616   0.580   1.123  1.0222 -1.5788 -0.8946
 1216SOL     H229848   0.600   0.516   1.259  0.9224 -1.1546 -0.7093
 1217SOL    OH229849   5.701   1.546   1.384  0.0567  0.1752 -0.1353
 1217SOL     H129850   5.760   1.471   1.378 -1.1094 -0.6410 -1.8190
 1217SOL     H229851   5.695   1.564   1.478  1.7101 -0.7218  0.1713
 1218SOL    OH229852   4.534   2.951   0.138  0.2091 -0.4162  0.5434
 1218SOL     H129853   4.544   3.046   0.142 -1.1256 -0.3546  3.5448
 1218SOL     H229854   4.485   2.935   0.057  1.2437  1.3537 -0.4541
 1219SOL    OH229855   3.169   2.398   7.967  0.3199 -0.5492  0.6949
 1219SOL     H129856   3.205   2.445   7.892 -2.9161  1.4820  0.3107
 1219SOL     H229857   3.124   2.323   7.928  0.1630 -0.4906  0.7631
 1220SOL    OH229858   7.702   2.462   8.023  0.2493  0.2380 -0.0730
 1220SOL     H129859   7.612   2.435   8.040  0.8387 -1.8835 -0.0759
 1220SOL     H229860   7.728   2.510   8.102 -0.0074 -1.5755  1.1618
 1221SOL    OH229861   7.131   7.206   2.167  0.1425 -0.1608  0.1812
 1221SOL     H129862   7.147   7.297   2.193  0.8012 -0.2328  0.0582
 1221SOL     H229863   7.069   7.212   2.095 -0.1355  0.1680  0.4489
 1222SOL    OH229864   7.639   6.598   5.716  0.5256 -0.4084  0.0647
 1222SOL     H129865   7.662   6.588   5.808  1.5835  1.2078 -0.0119
 1222SOL     H229866   7.562   6.542   5.704  1.5252 -2.1032  1.4637
 1223SOL    OH229867   7.881   3.936   6.743  0.2723  0.1651  0.1252
 1223SOL     H129868   7.800   3.941   6.692  0.5784  1.0871 -0.2881
 1223SOL     H229869   7.856   3.892   6.824 -0.3991 -0.5638 -0.4742
 1224SOL    OH229870   6.678   7.716   7.803 -0.1459 -0.0605 -0.0416
 1224SOL     H129871   6.744   7.786   7.796 -1.2151  0.9909  0.1080
 1224SOL     H229872   6.596   7.763   7.817 -1.2492 -1.2372 -2.2344
 1225SOL    OH229873   1.903   0.671   0.121  0.6106 -0.3495  0.6682
 1225SOL     H129874   1.818   0.670   0.165  1.4677  0.1437  2.3738
 1225SOL     H229875   1.959   0.725   0.177  2.1126 -0.8621 -0.2976
 1226SOL    OH229876   6.109   1.388   7.000 -0.1238 -1.0781  0.1774
 1226SOL     H129877   6.069   1.341   6.927  0.2487  0.4736 -1.0481
 1226SOL     H229878   6.180   1.438   6.960  0.5834 -0.8026  1.7323
 1227SOL    OH229879   1.591   6.764   1.001  0.1546  0.0909  0.3081
 1227SOL     H129880   1.569   6.852   1.034 -0.1327 -0.3958  1.4677
 1227SOL     H229881   1.685   6.755   1.016 -0.0968 -0.4053  1.7494
 1228SOL    OH229882   0.562   2.838   7.680  0.6531 -0.4850 -0.0823
 1228SOL     H129883   0.512   2.918   7.661  0.3614 -1.0522 -1.8179
 1228SOL     H229884   0.534   2.813   7.768 -2.0770 -0.6920 -0.9310
 1229SOL    OH229885   4.997   0.047   6.834 -0.6135  0.1903 -0.1847
 1229SOL     H129886   5.056   0.088   6.898 -0.5911  1.1456 -0.8109
 1229SOL     H229887   5.041  -0.034   6.809 -0.2478  0.1978  0.4203
 1230SOL    OH229888   1.102   7.010   1.532 -0.3174  0.6370 -0.3123
 1230SOL     H129889   1.197   7.020   1.539 -0.0811 -1.6941  0.0683
 1230SOL     H229890   1.089   6.978   1.442 -0.6386 -0.2114  0.0376
 1231SOL    OH229891   4.034   2.405   8.047  0.3933  0.4722  0.4980
 1231SOL     H129892   4.098   2.471   8.019  1.9201 -1.5300 -0.8167
 1231SOL     H229893   4.001   2.367   7.966 -0.0552 -0.7847  1.2524
 1232SOL    OH229894   2.594   6.894   7.490 -1.0875  0.5495 -0.5392
 1232SOL     H129895   2.645   6.858   7.417 -0.0412 -0.0267  0.4621
 1232SOL     H229896   2.555   6.974   7.454  0.0860  0.7151 -1.5048
 1233SOL    OH229897   1.416   4.284   7.171 -0.2793  0.4647 -0.0211
 1233SOL     H129898   1.471   4.228   7.116  1.2111  0.6248  1.2924
 1233SOL     H229899   1.445   4.373   7.151 -2.2521  0.7710 -1.6787
 1234SOL    OH229900   6.431   6.107   1.491 -0.3556  0.0453 -0.5133
 1234SOL     H129901   6.501   6.042   1.504  0.6455  1.3356  0.8212
 1234SOL     H229902   6.404   6.129   1.580 -0.4096  1.7309 -0.9424
 1235SOL    OH229903   7.500   1.722   7.616  0.2855 -0.1100 -0.4392
 1235SOL     H129904   7.553   1.786   7.569  0.7152  0.1003  0.3314
 1235SOL     H229905   7.535   1.637   7.588  2.3358  0.0441  1.5340
 1236SOL    OH229906   2.960   4.161   5.786 -0.4140  0.1487  0.6875
 1236SOL     H129907   3.005   4.188   5.866 -0.8174  0.7111  0.7317
 1236SOL     H229908   3.005   4.082   5.758  0.0840  0.2595  1.1705
 1237SOL    OH229909   6.583   7.977   6.751 -0.9344 -0.5012  0.1289
 1237SOL     H129910   6.631   7.899   6.723 -0.2412 -0.3736  0.9391
 1237SOL     H229911   6.501   7.943   6.786 -0.4958 -0.8994  0.7760
 1238SOL    OH229912   3.744   4.441   0.828  0.0315 -0.0480  0.0184
 1238SOL     H129913   3.694   4.479   0.900  1.8854  0.4473  1.0786
 1238SOL     H229914   3.718   4.349   0.826  2.0278 -0.7668  3.2059
 1239SOL    OH229915   2.037   4.959   0.245 -0.3965  0.1740  0.0301
 1239SOL     H129916   2.004   4.879   0.202 -0.7374  0.2625  0.1231
 1239SOL     H229917   2.131   4.957   0.230 -0.5210  0.2233 -0.7508
 1240SOL    OH229918   1.841   4.604   0.778 -0.0408 -0.2429  0.0890
 1240SOL     H129919   1.917   4.552   0.754  0.1281  0.3856 -0.7446
 1240SOL     H229920   1.875   4.670   0.839  0.5538  1.5064 -2.0614
 1241SOL    OH229921   6.336   5.469   1.227 -0.3446 -0.4271  0.6349
 1241SOL     H129922   6.423   5.458   1.188  0.4556  2.2193  1.5314
 1241SOL     H229923   6.278   5.483   1.151  0.5405  0.8168  0.1715
 1242SOL    OH229924   7.755   6.185   7.954  0.0451  0.6385 -0.4438
 1242SOL     H129925   7.718   6.129   7.885  0.3555  0.1160 -0.1957
 1242SOL     H229926   7.717   6.271   7.939 -1.8763 -0.0654  0.2793
 1243SOL    OH229927   3.306   5.365   2.052  0.1270 -0.3523 -0.8403
 1243SOL     H129928   3.301   5.337   2.144 -0.3121  1.4208 -0.3165
 1243SOL     H229929   3.358   5.445   2.054 -0.3738  0.0088 -2.0702
 1244SOL    OH229930   3.876   7.708   0.681 -0.4393 -0.3738  0.4883
 1244SOL     H129931   3.966   7.676   0.673 -1.1134 -2.3713  0.6793
 1244SOL     H229932   3.871   7.780   0.617  1.4026  0.0551  0.7878
 1245SOL    OH229933   6.191   4.716   0.668 -0.3509 -0.2244  0.5598
 1245SOL     H129934   6.173   4.626   0.698 -1.2883 -0.4882 -0.7631
 1245SOL     H229935   6.208   4.707   0.575 -2.3822  1.2138  0.0131
 1246SOL    OH229936   3.392   4.123   7.121 -0.2237  0.3985 -0.1308
 1246SOL     H129937   3.454   4.107   7.050 -0.6514 -0.1408 -0.3880
 1246SOL     H229938   3.380   4.218   7.122 -0.2625  0.4015 -0.8153
 1247SOL    OH229939   1.334   7.765   6.404 -0.0532  0.1152 -0.1568
 1247SOL     H129940   1.350   7.854   6.433 -0.7497  0.3332 -0.4352
 1247SOL     H229941   1.321   7.715   6.484  0.0162  0.3289 -0.0143
 1248SOL    OH229942   2.416   0.578   1.267 -0.2362 -0.1898  0.3648
 1248SOL     H129943   2.366   0.557   1.188 -0.4781 -1.3839  0.8279
 1248SOL     H229944   2.468   0.654   1.242  1.5069 -1.9933 -1.7132
 1249SOL    OH229945   1.319   5.859   0.500 -0.5921 -0.1847 -0.1837
 1249SOL     H129946   1.286   5.770   0.514  2.1994 -1.0585  1.1713
 1249SOL     H229947   1.392   5.847   0.439  0.6065  0.9968  0.9977
 1250SOL    OH229948   4.667   4.417   7.775 -0.5085  0.4870 -0.4780
 1250SOL     H129949   4.749   4.450   7.813 -0.6294 -0.2211  0.4177
 1250SOL     H229950   4.622   4.495   7.745  0.3266  0.9200 -0.6250
 1251SOL    OH229951   4.110   3.424   2.009  0.2584 -0.0578  0.5609
 1251SOL     H129952   4.151   3.453   2.090  1.2802  0.3548 -0.0939
 1251SOL     H229953   4.113   3.329   2.013  2.4132 -0.0469 -0.0150
 1252SOL    OH229954   1.993   0.182   6.478  1.2818  0.0665  0.2536
 1252SOL     H129955   1.969   0.092   6.502 -0.7763  0.6042  0.2647
 1252SOL     H229956   1.938   0.203   6.403 -0.8813  2.5435  2.4191
 1253SOL    OH229957   3.122   5.986   2.131 -0.0544  0.2699  0.0982
 1253SOL     H129958   3.106   6.030   2.048  2.0904 -0.4587 -0.7377
 1253SOL     H229959   3.041   5.998   2.181 -1.6479  0.0395 -2.3756
 1254SOL    OH229960   4.415   4.601   1.105  0.1021  0.0206 -0.2087
 1254SOL     H129961   4.452   4.513   1.108 -1.3157 -0.5897 -0.1927
 1254SOL     H229962   4.371   4.606   1.020 -0.2954  0.5059  0.0213
 1255SOL    OH229963   3.938   5.247   6.216  0.2326  0.7201 -0.7100
 1255SOL     H129964   3.980   5.294   6.144  0.4468  1.0383 -0.3807
 1255SOL     H229965   4.010   5.204   6.262 -0.0083 -0.2869 -1.2592
 1256SOL    OH229966   2.857   2.860   0.285  0.4995  0.2029 -0.1409
 1256SOL     H129967   2.846   2.947   0.325 -2.7968  0.7454 -2.0693
 1256SOL     H229968   2.826   2.799   0.351 -1.2282  0.8162 -0.3616
 1257SOL    OH229969   7.241   0.434   7.445 -0.4022  0.5182  0.1622
 1257SOL     H129970   7.331   0.468   7.445 -0.0564 -0.3726 -1.2628
 1257SOL     H229971   7.186   0.511   7.462  0.6408  1.0275  1.2867
 1258SOL    OH229972   7.256   5.419   7.311  0.4202  0.2704 -0.0220
 1258SOL     H129973   7.173   5.387   7.345 -0.8419  2.3984 -0.9867
 1258SOL     H229974   7.281   5.490   7.370  1.6761 -0.4703  0.3728
 1259SOL    OH229975   7.835   3.302   1.632 -0.2052  0.2785  0.2364
 1259SOL     H129976   7.908   3.311   1.571 -1.2963 -0.3867 -1.2239
 1259SOL     H229977   7.786   3.384   1.623 -0.7507 -0.0982 -0.3346
 1260SOL    OH229978   4.957   3.042   1.938  0.3928 -0.2001  0.7214
 1260SOL     H129979   4.939   3.058   2.031  1.6618 -0.5929  1.0549
 1260SOL     H229980   4.969   3.128   1.900 -1.3442  0.0223  0.6607
 1261SOL    OH229981   0.892   2.661   1.889 -0.2256  0.0286  0.3603
 1261SOL     H129982   0.808   2.661   1.843 -0.5358 -1.4138  0.9009
 1261SOL     H229983   0.958   2.656   1.820 -0.5667  1.3212 -0.0743
 1262SOL    OH229984   0.317   1.746   0.879  0.0764 -0.3064  0.6823
 1262SOL     H129985   0.397   1.784   0.917 -1.1248  1.3904  1.6132
 1262SOL     H229986   0.289   1.811   0.814  0.2869 -1.6306 -0.7514
 1263SOL    OH229987   7.520   5.924   8.084 -0.1768  0.0647  0.5173
 1263SOL     H129988   7.537   5.866   8.010 -0.2190 -0.7000  1.1061
 1263SOL     H229989   7.474   5.998   8.046 -1.7720 -1.1369  0.0586
 1264SOL    OH229990   4.127   6.230   1.258 -0.0499 -0.4418  0.4182
 1264SOL     H129991   4.041   6.264   1.283 -0.0276 -1.6650  2.2943
 1264SOL     H229992   4.161   6.294   1.196 -3.0453 -0.8173 -1.7739
 1265SOL    OH229993   1.984   7.882   1.023 -0.1189 -0.0302  0.5801
 1265SOL     H129994   2.009   7.897   0.932  0.8829  1.3274  1.0699
 1265SOL     H229995   2.064   7.853   1.066 -0.2037  0.9459  1.4006
 1266SOL    OH229996   3.770   5.931   5.487 -0.2151 -0.6027 -0.1467
 1266SOL     H129997   3.736   5.899   5.571  0.9319 -0.8588  0.2184
 1266SOL     H229998   3.795   5.851   5.440 -0.7615 -0.4522 -0.6980
 1267SOL    OH229999   4.559   1.041   0.065  0.1474  0.0351 -0.3651
 1267SOL     H130000   4.626   1.105   0.090 -0.2791 -0.0450  1.0267
 1267SOL     H230001   4.477   1.089   0.072 -0.4087 -1.2364  2.9476
 1268SOL    OH230002   5.862   6.196   0.128 -0.3594 -0.3659  0.4564
 1268SOL     H130003   5.930   6.135   0.101 -0.0301 -0.8369  2.2994
 1268SOL     H230004   5.877   6.210   0.221 -0.4835  2.4648  0.1128
 1269SOL    OH230005   1.520   5.025   7.812 -0.6973  0.5485  0.6175
 1269SOL     H130006   1.488   4.936   7.799 -0.2631  0.1425  2.1501
 1269SOL     H230007   1.610   5.013   7.843 -0.8230  1.4913  1.3630
 1270SOL    OH230008   6.419   4.260   7.576 -0.2883 -0.2074 -0.2123
 1270SOL     H130009   6.422   4.195   7.646 -0.9814 -0.9278 -0.8503
 1270SOL     H230010   6.444   4.342   7.619 -1.2110 -0.5423  0.9807
 1271SOL    OH230011   6.757   5.331   0.925 -0.0783  0.0817 -0.5474
 1271SOL     H130012   6.681   5.281   0.895  0.5385  0.0378 -2.0759
 1271SOL     H230013   6.798   5.363   0.844  1.9033 -0.4562  0.2219
 1272SOL    OH230014   0.247   0.637   0.470  0.3186 -0.2634 -0.5200
 1272SOL     H130015   0.202   0.644   0.554  0.4913  2.2235 -0.6089
 1272SOL     H230016   0.324   0.582   0.488 -0.9617 -1.8065  0.3555
 1273SOL    OH230017   3.120   7.911   1.579 -0.0033 -0.7010  0.1853
 1273SOL     H130018   3.126   7.931   1.673  1.0042 -0.7440  0.1359
 1273SOL     H230019   3.190   7.848   1.563  0.4512  0.0166 -0.7768
 1274SOL    OH230020   7.293   7.115   7.029  0.5893  0.6043 -0.3416
 1274SOL     H130021   7.317   7.119   7.122 -1.6394 -1.4866  0.3855
 1274SOL     H230022   7.341   7.039   6.996  0.3966  0.5816 -0.5672
 1275SOL    OH230023   2.145   3.759   5.933  0.2264  0.3574  0.3286
 1275SOL     H130024   2.235   3.787   5.916  0.0632  0.1991 -0.8591
 1275SOL     H230025   2.094   3.840   5.930  0.0569  0.2106 -0.9679
 1276SOL    OH230026   5.614   7.496   6.917  0.0321  0.1829 -0.1184
 1276SOL     H130027   5.696   7.450   6.930 -0.1503 -0.1231 -0.0491
 1276SOL     H230028   5.639   7.588   6.911  0.6140 -0.0973 -2.2472
 1277SOL    OH230029   5.796   1.716   6.991 -0.3723 -0.0298  0.2859
 1277SOL     H130030   5.819   1.730   7.083  0.8597 -2.4674  0.3727
 1277SOL     H230031   5.877   1.735   6.943 -0.7593  0.3393 -0.2321
 1278SOL    OH230032   1.628   5.383   1.525  0.1832 -0.5915  0.8874
 1278SOL     H130033   1.600   5.411   1.612 -0.1571 -2.3128  1.3436
 1278SOL     H230034   1.564   5.422   1.465 -0.8166 -1.1286  1.5912
 1279SOL    OH230035   1.304   7.695   8.192 -0.0938 -0.3042 -0.4669
 1279SOL     H130036   1.375   7.733   8.244 -1.6832  2.3239 -0.1530
 1279SOL     H230037   1.225   7.713   8.243 -1.2050 -1.5817 -1.6936
 1280SOL    OH230038   0.730   1.438   7.369 -0.3538 -0.0373 -0.5482
 1280SOL     H130039   0.709   1.368   7.431 -0.2577  0.0352 -0.4329
 1280SOL     H230040   0.779   1.502   7.421 -0.0433 -0.0988 -0.7637
 1281SOL    OH230041   6.598   1.861   0.287  0.7303  0.5558 -0.3982
 1281SOL     H130042   6.556   1.874   0.201 -0.1886 -1.9761 -0.3827
 1281SOL     H230043   6.649   1.781   0.276 -0.2166 -0.3684  1.6907
 1282SOL    OH230044   6.589   0.194   1.661  0.2072 -0.0522 -0.1261
 1282SOL     H130045   6.528   0.224   1.594  0.0481  0.2031  0.1280
 1282SOL     H230046   6.601   0.101   1.644  0.6847  0.1507 -0.9076
 1283SOL    OH230047   7.878   0.960   2.022  0.1451  0.6353  0.0662
 1283SOL     H130048   7.841   0.872   2.034 -0.0840  0.6695 -0.3535
 1283SOL     H230049   7.967   0.954   2.055  0.8286 -0.3253 -1.8758
 1284SOL    OH230050   6.574   2.435   0.889 -0.5752 -0.1795 -0.1704
 1284SOL     H130051   6.534   2.358   0.851 -0.6743  0.8268 -2.1882
 1284SOL     H230052   6.668   2.416   0.891 -0.8417 -1.4366  1.9826
 1285SOL    OH230053   4.086   4.773   0.944 -0.1852 -0.5790  0.0130
 1285SOL     H130054   4.046   4.689   0.965 -1.4301 -0.3693 -1.4278
 1285SOL     H230055   4.092   4.774   0.848 -1.6078  1.5841 -0.1006
 1286SOL    OH230056   6.373   3.250   0.658  0.2644 -0.0258  0.4993
 1286SOL     H130057   6.314   3.302   0.712  0.5085  0.0573  0.6848
 1286SOL     H230058   6.317   3.181   0.621  0.4056 -1.0033  2.0794
 1287SOL    OH230059   1.428   7.829   1.939  0.2849 -0.4244 -0.1240
 1287SOL     H130060   1.500   7.790   1.989 -0.0173  0.6557  1.2122
 1287SOL     H230061   1.431   7.922   1.963 -2.6104 -0.6385  1.3374
 1288SOL    OH230062   0.609   7.236   1.305  0.2483 -0.2935  0.8736
 1288SOL     H130063   0.571   7.183   1.236 -0.6569 -0.3310  1.3847
 1288SOL     H230064   0.694   7.264   1.271  0.2262 -1.1106  0.1493
 1289SOL    OH230065   0.493   1.123   6.074 -0.1712 -0.0146 -0.1943
 1289SOL     H130066   0.420   1.186   6.075  0.4256  0.7242 -1.7312
 1289SOL     H230067   0.571   1.178   6.070  0.3555 -0.8645 -1.6241
 1290SOL    OH230068   0.186   6.915   0.671 -0.6146 -0.0813 -0.3054
 1290SOL     H130069   0.189   6.841   0.731  0.6137 -0.9741 -1.4577
 1290SOL     H230070   0.276   6.928   0.643 -1.0630  0.7841 -1.4207
 1291SOL    OH230071   2.402   7.915   0.485  0.6635 -0.5136  0.2611
 1291SOL     H130072   2.322   7.864   0.495 -0.3697  1.1869  0.9087
 1291SOL     H230073   2.462   7.877   0.549 -0.7658  0.3278  2.1666
 1292SOL    OH230074   6.640   7.130   0.912  0.4779  0.1073 -0.3167
 1292SOL     H130075   6.688   7.211   0.897 -1.6814  1.4094 -0.4024
 1292SOL     H230076   6.567   7.133   0.850 -0.5859 -1.1003  0.8308
 1293SOL    OH230077   4.728   1.023   0.543  0.3849 -0.2945  0.4432
 1293SOL     H130078   4.656   1.023   0.606  2.4766 -0.3414  2.9469
 1293SOL     H230079   4.780   1.099   0.567  0.9574 -0.0064 -1.6126
 1294SOL    OH230080   7.006   5.254   6.688 -0.0728  0.4641 -0.2586
 1294SOL     H130081   7.069   5.289   6.750 -1.4177  1.6813  0.4491
 1294SOL     H230082   6.967   5.179   6.733  1.3017 -0.6879 -0.9500
 1295SOL    OH230083   7.048   2.482   1.905  0.5579  0.2043  0.1833
 1295SOL     H130084   6.971   2.471   1.849  1.2581 -0.1528 -0.7193
 1295SOL     H230085   7.014   2.470   1.994 -0.9808  2.9199  0.0218
 1296SOL    OH230086   5.961   5.614   6.659 -0.1673  0.1141  0.2032
 1296SOL     H130087   5.886   5.557   6.641 -0.0411 -0.2951  0.9190
 1296SOL     H230088   6.025   5.592   6.592 -1.6694  2.3271 -2.0219
 1297SOL    OH230089   5.197   5.136   2.002 -0.3248 -0.3264 -0.0919
 1297SOL     H130090   5.208   5.107   2.092  0.2919 -0.7101 -0.2858
 1297SOL     H230091   5.151   5.064   1.959  0.8959 -0.8925 -0.4893
 1298SOL    OH230092   3.133   1.195   7.167 -0.0860  0.5959  0.1988
 1298SOL     H130093   3.048   1.186   7.211  0.6156 -1.6027  1.1607
 1298SOL     H230094   3.114   1.177   7.075 -0.4404 -1.2913  0.6227
 1299SOL    OH230095   7.426   6.547   8.136  0.3685 -0.0305  0.3297
 1299SOL     H130096   7.433   6.639   8.111  3.5045 -1.1333 -3.3186
 1299SOL     H230097   7.360   6.511   8.077  0.4446 -0.4838  0.5169
 1300SOL    OH230098   7.075   3.626   6.761 -0.5562 -0.2376 -0.3880
 1300SOL     H130099   7.110   3.642   6.674 -1.0978 -0.0836 -0.5835
 1300SOL     H230100   7.028   3.543   6.754 -0.6623 -0.1899 -0.2660
 1301SOL    OH230101   5.563   5.266   7.328 -0.2738  0.7911  0.4333
 1301SOL     H130102   5.632   5.199   7.328  1.4414  2.4522  2.9683
 1301SOL     H230103   5.492   5.228   7.379 -0.1316  0.1454  0.1534
 1302SOL    OH230104   0.458   6.989   7.991 -0.3577 -0.3660 -0.0225
 1302SOL     H130105   0.386   7.048   7.971  0.8403  0.4748 -2.0196
 1302SOL     H230106   0.536   7.036   7.961  1.1457 -0.8839  2.8562
 1303SOL    OH230107   1.068   5.540   7.138  0.3947  0.4218 -0.2361
 1303SOL     H130108   1.008   5.511   7.069  1.2097 -0.1133 -0.7280
 1303SOL     H230109   1.139   5.584   7.091  0.3644  1.0987  0.3476
 1304SOL    OH230110   6.407   0.537   7.279  0.2168 -0.2417 -0.4599
 1304SOL     H130111   6.406   0.553   7.373 -0.4133 -0.2105 -0.4736
 1304SOL     H230112   6.393   0.443   7.270  0.1750 -0.2294 -0.5253
 1305SOL    OH230113   0.949   5.221   1.004  0.2624 -0.2101 -0.3365
 1305SOL     H130114   0.890   5.292   0.977 -0.0413 -0.7645 -1.1707
 1305SOL     H230115   0.988   5.251   1.086  0.2072  0.9595 -0.7339
 1306SOL    OH230116   6.108   5.365   2.284 -0.3991  0.1884  0.2818
 1306SOL     H130117   6.175   5.326   2.227 -0.4738 -0.7479  0.8292
 1306SOL     H230118   6.093   5.300   2.352 -1.2948  0.7318  0.6175
 1307SOL    OH230119   6.006   7.809   1.702  0.0263 -0.1309  0.5575
 1307SOL     H130120   6.004   7.727   1.653 -0.8335  0.2288 -0.0143
 1307SOL     H230121   5.965   7.873   1.644  2.5549  1.1722  0.1781
 1308SOL    OH230122   4.958   2.426   8.263 -0.0026  0.2767 -0.6301
 1308SOL     H130123   4.937   2.335   8.283  0.6127  0.1321 -0.6189
 1308SOL     H230124   4.875   2.465   8.237 -0.4324 -0.0573  0.2430
 1309SOL    OH230125   4.336   1.133   1.755 -1.0579 -0.1260 -0.0424
 1309SOL     H130126   4.340   1.146   1.850 -1.0686 -0.3143 -0.0154
 1309SOL     H230127   4.420   1.094   1.732 -1.2532 -0.5587 -0.0329
 1310SOL    OH230128   4.611   2.305   7.636  0.2045 -0.3777 -0.2602
 1310SOL     H130129   4.579   2.285   7.548  0.4469  0.1522 -0.4696
 1310SOL     H230130   4.660   2.227   7.662  1.0019 -0.1306 -1.0053
 1311SOL    OH230131   3.684   2.140   6.468 -0.2911  0.2540 -0.5111
 1311SOL     H130132   3.657   2.093   6.390  0.1885  0.0741 -0.5680
 1311SOL     H230133   3.728   2.075   6.523  2.3019  1.0713 -1.5399
 1312SOL    OH230134   4.341   6.059   1.346 -0.6379 -0.4871 -0.0768
 1312SOL     H130135   4.415   6.106   1.309 -0.4155 -0.9825 -0.2593
 1312SOL     H230136   4.264   6.098   1.304 -0.4602 -0.2286 -0.1606
 1313SOL    OH230137   1.564   5.798   0.292 -0.2834  0.2485 -0.3857
 1313SOL     H130138   1.527   5.734   0.231  0.4194 -0.5044 -0.0369
 1313SOL     H230139   1.625   5.849   0.239  0.2813 -0.3649 -0.3351
 1314SOL    OH230140   6.254   2.491   7.709 -0.4629 -0.5026  0.9172
 1314SOL     H130141   6.319   2.455   7.769  1.9982  0.2924 -1.1761
 1314SOL     H230142   6.235   2.420   7.648  1.6189  0.5038 -0.9729
 1315SOL    OH230143   6.013   4.868   0.193  0.0023 -0.2291 -0.0116
 1315SOL     H130144   5.958   4.860   0.271 -0.7087 -0.9431 -0.5814
 1315SOL     H230145   6.072   4.941   0.213 -1.3163  0.7214  0.5131
 1316SOL    OH230146   4.057   5.543   8.180 -0.1599  0.2190 -0.3667
 1316SOL     H130147   3.972   5.587   8.178 -0.2369  0.0822 -0.1265
 1316SOL     H230148   4.103   5.581   8.254  0.4478  1.1313 -1.2090
 1317SOL    OH230149   0.259   3.700   7.059 -0.0236  0.3617 -0.2257
 1317SOL     H130150   0.259   3.757   7.136 -0.3363  0.2057 -0.1122
 1317SOL     H230151   0.315   3.626   7.084 -0.7072 -0.0421  0.1099
 1318SOL    OH230152   5.595   5.927   7.420 -0.0765  0.2046  0.2475
 1318SOL     H130153   5.659   5.865   7.455 -0.6677 -0.7495 -0.3418
 1318SOL     H230154   5.577   5.894   7.331 -0.4574  1.1730 -0.0359
 1319SOL    OH230155   3.210   0.273   1.030  0.0733  0.1429  0.1671
 1319SOL     H130156   3.142   0.281   1.097 -2.1990 -0.2552 -2.0055
 1319SOL     H230157   3.195   0.186   0.992  2.6415 -0.4807  0.5218
 1320SOL    OH230158   0.747   5.247   7.951 -0.1509  0.2742  0.1580
 1320SOL     H130159   0.784   5.330   7.982  0.4818  0.9296 -2.2265
 1320SOL     H230160   0.748   5.255   7.856 -1.1534 -2.0334 -0.0732
 1321SOL    OH230161   7.178   5.966   1.148 -0.1716  0.2828  0.2023
 1321SOL     H130162   7.205   6.044   1.197 -0.6256 -0.3433  1.4593
 1321SOL     H230163   7.250   5.904   1.161 -0.0164  0.3277 -0.4269
 1322SOL    OH230164   4.028   6.802   5.884 -0.2381  0.2799  0.0130
 1322SOL     H130165   3.949   6.787   5.936  0.3918 -1.9230  0.4102
 1322SOL     H230166   3.996   6.833   5.799 -1.5343 -0.5882  0.1684
 1323SOL    OH230167   5.356   3.659   7.219  0.8164 -0.0009  0.2800
 1323SOL     H130168   5.330   3.737   7.267  2.7118  1.1611 -0.5273
 1323SOL     H230169   5.312   3.666   7.134 -0.5062 -0.7830  0.8778
 1324SOL    OH230170   7.226   1.082   0.307 -0.3739 -0.2118  0.8369
 1324SOL     H130171   7.312   1.063   0.271  0.9349  1.6073  2.8816
 1324SOL     H230172   7.224   1.038   0.391 -0.5287  1.6323  1.8299
 1325SOL    OH230173   7.757   0.972   1.621  0.1582 -0.5011 -0.3242
 1325SOL     H130174   7.710   1.053   1.601  0.9111 -0.0355 -0.1838
 1325SOL     H230175   7.703   0.929   1.688  0.1369  0.2263  0.1264
 1326SOL    OH230176   6.097   6.943   1.865 -0.2367  0.0667  0.0470
 1326SOL     H130177   6.017   6.898   1.839 -0.1167  0.0018 -0.2139
 1326SOL     H230178   6.150   6.875   1.908  0.4713 -0.3553 -1.4573
 1327SOL    OH230179   3.472   6.616   0.795 -0.5670  0.0580  0.0422
 1327SOL     H130180   3.398   6.669   0.768 -0.3048  0.7105  0.5740
 1327SOL     H230181   3.549   6.661   0.759 -0.3674 -0.1561  0.1928
 1328SOL    OH230182   2.237   5.814   7.729 -0.5417  0.3791 -0.2958
 1328SOL     H130183   2.286   5.875   7.673  0.1650  0.8922  0.8649
 1328SOL     H230184   2.170   5.868   7.771 -0.6947  0.1114 -0.1938
 1329SOL    OH230185   1.739   7.840   0.389 -0.2597  0.2351 -0.1223
 1329SOL     H130186   1.725   7.872   0.478  2.1228  0.7277  0.0871
 1329SOL     H230187   1.833   7.844   0.375 -0.2762 -2.6446 -1.6196
 1330SOL    OH230188   2.375   4.692   1.820 -0.1784 -0.5521  0.0246
 1330SOL     H130189   2.373   4.596   1.827 -0.0270 -0.4717  1.1207
 1330SOL     H230190   2.315   4.711   1.747 -1.5667 -1.3778  0.9260
 1331SOL    OH230191   6.161   1.550   0.828 -0.0613  0.3650  0.8656
 1331SOL     H130192   6.135   1.464   0.795  0.4317  1.3632 -2.3029
 1331SOL     H230193   6.088   1.608   0.807  0.5007  1.1517  1.0109
 1332SOL    OH230194   2.274   5.686   6.329  0.4350 -0.2673  0.1003
 1332SOL     H130195   2.230   5.757   6.283  0.7511  0.2367  0.5810
 1332SOL     H230196   2.210   5.658   6.395  0.1999 -0.6218 -0.2731
 1333SOL    OH230197   0.194   2.128   6.561 -0.0215 -0.3841  0.7422
 1333SOL     H130198   0.273   2.074   6.554 -0.6041 -1.2005  0.5025
 1333SOL     H230199   0.125   2.067   6.587 -1.2134 -0.2121 -1.9264
 1334SOL    OH230200   2.185   1.842   2.021  0.2121  0.1895  0.3723
 1334SOL     H130201   2.205   1.753   1.993  2.1412  0.3531  1.1153
 1334SOL     H230202   2.160   1.888   1.941 -1.2129 -1.1170  0.0512
 1335SOL    OH230203   5.582   0.059   7.299  0.5322 -0.0557  0.0414
 1335SOL     H130204   5.658   0.006   7.324  0.0988 -0.4704  0.4872
 1335SOL     H230205   5.593   0.140   7.349  1.7579  0.7188 -1.4423
 1336SOL    OH230206   5.930   2.750   7.482 -0.3513 -0.6352 -0.2784
 1336SOL     H130207   5.912   2.657   7.469 -0.2306 -0.5677 -0.9307
 1336SOL     H230208   6.009   2.752   7.535 -0.2730 -0.9036 -0.3864
 1337SOL    OH230209   7.244   6.396   0.098 -0.0463  0.0629 -0.8769
 1337SOL     H130210   7.300   6.472   0.082  1.0566 -0.8627 -1.4681
 1337SOL     H230211   7.207   6.374   0.013 -0.4045 -0.0320 -0.6997
 1338SOL    OH230212   4.058   7.119   7.866  0.0420  0.2283  0.3416
 1338SOL     H130213   4.059   7.026   7.889 -2.2383  0.4236  1.3128
 1338SOL     H230214   4.106   7.161   7.937  1.9603 -0.2699 -0.6061
 1339SOL    OH230215   7.535   4.245   0.207  0.1773  0.1886 -0.4152
 1339SOL     H130216   7.605   4.190   0.244  1.9543  1.2321 -2.1244
 1339SOL     H230217   7.520   4.209   0.120 -0.5839  0.7254 -0.5138
 1340SOL    OH230218   3.442   4.454   7.663  0.3837 -0.2056  0.3346
 1340SOL     H130219   3.428   4.544   7.692  2.3499  0.2807 -0.1328
 1340SOL     H230220   3.537   4.448   7.651 -0.0708 -1.1780 -3.3319
 1341SOL    OH230221   6.103   1.729   1.382  0.4869 -0.1663  0.2803
 1341SOL     H130222   6.149   1.713   1.299  0.0327  1.6550 -0.3499
 1341SOL     H230223   6.106   1.824   1.393  1.7542 -0.4735  3.0633
 1342SOL    OH230224   2.724   7.123   7.079 -0.1193  0.6453 -0.6428
 1342SOL     H130225   2.653   7.170   7.036 -0.4206  0.0254 -0.8320
 1342SOL     H230226   2.758   7.184   7.145 -1.8877  0.3768  0.5498
 1343SOL    OH230227   5.746   7.681   2.097  0.4069 -0.7860  0.2292
 1343SOL     H130228   5.743   7.678   2.001 -0.5296  0.6063  0.1975
 1343SOL     H230229   5.677   7.620   2.125  0.7535 -1.2772  0.0290
 1344SOL    OH230230   2.855   5.815   0.371 -0.2462 -0.2736 -0.0124
 1344SOL     H130231   2.943   5.782   0.353 -0.9883 -1.5965 -1.3287
 1344SOL     H230232   2.867   5.909   0.381  1.2450 -0.3714 -0.6980
 1345SOL    OH230233   5.050   2.890   0.291 -0.5419 -0.4104 -0.1940
 1345SOL     H130234   4.966   2.931   0.270 -0.5903 -0.8473 -0.8753
 1345SOL     H230235   5.033   2.796   0.285  0.1172 -0.4961 -0.8280
 1346SOL    OH230236   6.120   2.041   1.322 -0.0808  0.4154 -0.0458
 1346SOL     H130237   6.158   2.070   1.239  0.1521  1.5173  0.4339
 1346SOL     H230238   6.097   2.122   1.367  0.0712 -0.1703  1.0944
 1347SOL    OH230239   4.172   5.762   1.392  0.4879  0.3246 -0.5222
 1347SOL     H130240   4.259   5.803   1.391  0.4134  0.5505  1.3739
 1347SOL     H230241   4.177   5.698   1.464 -0.6123 -0.3353 -1.0253
 1348SOL    OH230242   4.433   2.675   6.277  0.3525  0.3873  0.4217
 1348SOL     H130243   4.439   2.732   6.200  0.1598  1.7960  1.4184
 1348SOL     H230244   4.339   2.659   6.287  0.4701 -0.8340 -0.3666
 1349SOL    OH230245   3.657   0.246   7.831  0.4752  0.0038  0.0696
 1349SOL     H130246   3.608   0.319   7.793 -1.5878  0.2147  2.9144
 1349SOL     H230247   3.606   0.168   7.808  0.1983 -0.0487  0.8346
 1350SOL    OH230248   4.000   2.133   6.615 -0.6857  0.2695 -0.0842
 1350SOL     H130249   4.045   2.073   6.674 -1.6000  0.1741  0.5322
 1350SOL     H230250   3.913   2.095   6.603 -1.1332  1.2410 -0.0291
 1351SOL    OH230251   7.303   0.693   6.867  0.1641  0.0696 -0.4742
 1351SOL     H130252   7.240   0.665   6.933  2.1881  0.0659  1.5244
 1351SOL     H230253   7.389   0.676   6.907  1.4346  0.1543 -3.0787
 1352SOL    OH230254   1.397   0.735   0.974  0.5330  0.2010 -0.0639
 1352SOL     H130255   1.394   0.812   1.031  0.3138  1.2111 -1.4185
 1352SOL     H230256   1.479   0.692   0.998  0.8712  1.0859  0.4235
 1353SOL    OH230257   6.930   1.678   7.705  0.7926  0.0492 -0.5894
 1353SOL     H130258   6.920   1.606   7.767 -3.1377  0.3491 -0.7651
 1353SOL     H230259   6.952   1.754   7.760 -0.0599 -0.2359  0.1563
 1354SOL    OH230260   4.185   7.913   6.269 -0.0254 -0.2892 -0.0259
 1354SOL     H130261   4.101   7.887   6.229 -0.2598  0.0217  0.2655
 1354SOL     H230262   4.188   8.008   6.258  0.7658 -0.4208 -0.9584
 1355SOL    OH230263   4.163   0.342   2.116 -0.7180  0.0212  0.6673
 1355SOL     H130264   4.238   0.394   2.087 -0.1042 -2.0339 -1.5757
 1355SOL     H230265   4.124   0.394   2.187 -0.1519  3.5376 -1.4556
 1356SOL    OH230266   3.441   1.818   7.775  0.1877  0.8269 -0.4672
 1356SOL     H130267   3.434   1.875   7.851 -1.1009  0.2042 -0.1064
 1356SOL     H230268   3.424   1.875   7.700  0.3471  1.2104 -0.2110
 1357SOL    OH230269   1.444   5.552   0.765  0.0801  0.6784  0.4153
 1357SOL     H130270   1.396   5.488   0.818 -0.4616  1.0565  0.3814
 1357SOL     H230271   1.500   5.598   0.828  1.4144 -0.6842  0.2495
 1358SOL    OH230272   3.922   1.426   6.315  0.0821 -0.3473 -0.4996
 1358SOL     H130273   3.836   1.390   6.293 -0.1467 -0.3929  0.4625
 1358SOL     H230274   3.942   1.486   6.244 -0.3686 -0.9695 -1.1617
 1359SOL    OH230275   5.023   4.735   7.332  0.6122 -0.1275  0.4426
 1359SOL     H130276   5.095   4.775   7.380 -0.2846  1.9932  0.0855
 1359SOL     H230277   4.982   4.676   7.395  0.7210  1.0699  1.6563
 1360SOL    OH230278   7.869   5.176   1.759 -0.7028  0.2719 -0.0277
 1360SOL     H130279   7.886   5.235   1.833 -0.0057  2.0836 -1.5862
 1360SOL     H230280   7.775   5.158   1.765 -0.8848  1.3612  0.6256
 1361SOL    OH230281   7.181   0.807   1.794  0.4480  0.7750 -0.1189
 1361SOL     H130282   7.258   0.837   1.841  1.7412 -0.0745 -1.6533
 1361SOL     H230283   7.163   0.876   1.730  0.6509  0.4118 -0.5649
 1362SOL    OH230284   6.770   2.734   1.423 -0.0132  0.4867 -0.4841
 1362SOL     H130285   6.718   2.656   1.401 -0.6038  1.3367 -2.1877
 1362SOL     H230286   6.718   2.779   1.489  0.5110 -0.7552  0.7876
 1363SOL    OH230287   7.234   7.184   6.736  0.4918  0.6390 -0.2000
 1363SOL     H130288   7.297   7.158   6.803  0.3104  2.2315  0.6316
 1363SOL     H230289   7.282   7.177   6.654  1.4727  0.9303  0.3304
 1364SOL    OH230290   0.588   5.955   7.330  0.1580  0.2044 -0.0783
 1364SOL     H130291   0.684   5.954   7.328  0.1704  0.3638  0.5030
 1364SOL     H230292   0.563   5.867   7.299  0.5144 -0.2935  1.0250
 1365SOL    OH230293   5.529   3.932   7.905  0.5303  0.4157  0.0736
 1365SOL     H130294   5.450   3.906   7.856  0.3837 -0.0032  0.5253
 1365SOL     H230295   5.519   3.889   7.990  0.1536  2.1675  0.9407
 1366SOL    OH230296   5.017   7.199   7.314 -0.1309  0.0510  0.3744
 1366SOL     H130297   5.035   7.234   7.227 -0.3784  0.7135  0.5845
 1366SOL     H230298   4.942   7.141   7.303 -0.4666  0.5135  0.2327
 1367SOL    OH230299   6.959   7.876   0.876  0.1651 -0.8951  0.0473
 1367SOL     H130300   7.001   7.796   0.908 -0.5054 -1.1255  0.3463
 1367SOL     H230301   7.032   7.933   0.852  0.6552 -1.2867  0.5975
 1368SOL    OH230302   2.235   5.967   8.016 -0.0519 -0.1124  0.0835
 1368SOL     H130303   2.315   5.962   7.963 -0.5735  2.3440 -0.9920
 1368SOL     H230304   2.253   6.036   8.079 -0.9909 -0.2134  0.4636
 1369SOL    OH230305   3.680   4.338   7.311 -0.0500 -0.0726 -0.1582
 1369SOL     H130306   3.657   4.431   7.305  0.8707  0.3610  2.3348
 1369SOL     H230307   3.598   4.295   7.337  0.1293  0.4343  1.2986
 1370SOL    OH230308   3.956   2.834   2.264  0.8938 -0.5695  0.1759
 1370SOL     H130309   3.939   2.840   2.170 -0.3379  0.5553  0.4550
 1370SOL     H230310   4.043   2.873   2.276 -0.3752  2.4790 -0.0852
 1371SOL    OH230311   6.334   4.753   1.299  0.3769  0.1691  0.5660
 1371SOL     H130312   6.393   4.767   1.225 -2.0025  0.1818 -1.4105
 1371SOL     H230313   6.296   4.667   1.283 -0.4451  0.3430  1.5771
 1372SOL    OH230314   0.539   3.089   0.295 -0.0836 -0.0077 -0.2932
 1372SOL     H130315   0.501   3.079   0.382  0.8025  0.5094  0.1531
 1372SOL     H230316   0.616   3.033   0.294 -0.8604 -1.0908 -1.2200
 1373SOL    OH230317   1.089   5.267   1.682  0.0823 -0.0863  0.1290
 1373SOL     H130318   1.183   5.280   1.679 -0.0544  1.0729  0.7494
 1373SOL     H230319   1.073   5.191   1.625  1.1490  1.0183 -1.6654
 1374SOL    OH230320   5.231   0.527   1.290  0.8767  0.6241 -0.0790
 1374SOL     H130321   5.315   0.487   1.266  0.8212  1.7931 -2.4274
 1374SOL     H230322   5.190   0.547   1.206 -1.0421  1.5325  1.0539
 1375SOL    OH230323   1.901   6.230   6.443 -0.0726  0.0692  0.0109
 1375SOL     H130324   1.830   6.281   6.481  0.7684 -1.4960  3.8697
 1375SOL     H230325   1.961   6.295   6.406 -0.4362  1.7265  2.2625
 1376SOL    OH230326   2.700   0.264   7.516  0.0215 -0.1623  0.0814
 1376SOL     H130327   2.651   0.203   7.572 -0.7452  2.0057  1.8649
 1376SOL     H230328   2.790   0.259   7.549 -0.1280 -0.0028  0.5253
 1377SOL    OH230329   7.944   0.518   0.615 -0.5155 -0.0881 -0.5556
 1377SOL     H130330   8.022   0.464   0.623 -1.4253 -1.1964  1.3582
 1377SOL     H230331   7.879   0.461   0.573 -0.4315  0.6768 -1.7322
 1378SOL    OH230332   6.348   5.008   1.625 -0.4378  0.2381 -0.2781
 1378SOL     H130333   6.280   4.951   1.589  0.9399 -1.4529 -0.2581
 1378SOL     H230334   6.374   5.063   1.551 -3.3209  2.4599  0.2451
 1379SOL    OH230335   3.081   4.502   0.953  0.2500  0.3025  0.3163
 1379SOL     H130336   3.110   4.424   0.905 -0.1814 -0.7046  1.6560
 1379SOL     H230337   3.118   4.491   1.041 -2.1434  0.1936  1.3388
 1380SOL    OH230338   4.267   6.691   2.165  0.3016 -0.2691 -0.1583
 1380SOL     H130339   4.212   6.614   2.180 -0.6039  0.3867 -0.1266
 1380SOL     H230340   4.207   6.758   2.133  0.9593  0.6624  0.5414
 1381SOL    OH230341   2.443   6.875   7.765  0.2171 -0.5714  0.0393
 1381SOL     H130342   2.367   6.826   7.735  0.4953 -0.3686 -1.0155
 1381SOL     H230343   2.406   6.948   7.815 -0.2742 -0.5972 -0.2803
 1382SOL    OH230344   5.994   7.535   0.087  0.1447 -0.4707 -0.0448
 1382SOL     H130345   6.001   7.439   0.089  1.0600 -0.4177 -0.5937
 1382SOL     H230346   5.983   7.556  -0.005  2.7114  0.1363 -0.2419
 1383SOL    OH230347   0.459   3.355   0.727  0.2025 -0.5198  0.0946
 1383SOL     H130348   0.530   3.370   0.789  1.7369 -1.6537 -1.3384
 1383SOL     H230349   0.380   3.356   0.780  1.3197  0.2753  1.7977
 1384SOL    OH230350   2.737   1.276   2.212 -0.3896  0.3411  0.5008
 1384SOL     H130351   2.790   1.271   2.292 -0.5846  0.4570  0.6393
 1384SOL     H230352   2.742   1.369   2.186 -0.5510  0.3584  0.5323
 1385SOL    OH230353   1.382   3.550   7.256  0.0963  0.0723 -0.5219
 1385SOL     H130354   1.444   3.619   7.280 -0.8402  0.5720  0.4944
 1385SOL     H230355   1.348   3.577   7.170  1.8196 -0.5894 -1.4309
 1386SOL    OH230356   1.477   5.427   2.297  0.4741 -1.0299 -0.2225
 1386SOL     H130357   1.428   5.420   2.379  1.4813 -0.8436  0.4144
 1386SOL     H230358   1.566   5.400   2.320  1.1618  0.5853 -0.8738
 1387SOL    OH230359   1.960   3.503   6.935 -0.1803  0.2108  0.1325
 1387SOL     H130360   2.028   3.472   6.995 -0.8802 -0.1201  0.7660
 1387SOL     H230361   1.934   3.588   6.970  0.8594  0.9657 -0.8918
 1388SOL    OH230362   5.344   1.134   0.549  0.1916 -0.0610 -0.0223
 1388SOL     H130363   5.284   1.077   0.501  0.1561  0.0476 -0.1045
 1388SOL     H230364   5.430   1.094   0.535 -0.0296 -1.0099  1.2439
 1389SOL    OH230365   6.075   2.112   7.393  0.5518 -0.2844  0.2245
 1389SOL     H130366   6.102   2.159   7.472  0.6293 -0.0608  0.0666
 1389SOL     H230367   6.133   2.036   7.389  0.2090 -0.5714  0.6580
 1390SOL    OH230368   6.527   6.038   2.178 -0.0062 -0.4440 -0.2899
 1390SOL     H130369   6.551   6.071   2.091  0.7700 -0.5959 -0.1397
 1390SOL     H230370   6.549   5.945   2.175  0.0252 -0.4487  0.0736
 1391SOL    OH230371   5.683   0.422   0.051 -0.2546 -0.1598 -0.1432
 1391SOL     H130372   5.766   0.394   0.090 -0.8486 -2.1542 -0.2610
 1391SOL     H230373   5.702   0.438  -0.041  0.2337  0.4967  0.0683
 1392SOL    OH230374   4.356   5.241   1.312  0.3619  0.4223 -0.4374
 1392SOL     H130375   4.308   5.239   1.229  1.2667  1.7002 -1.0052
 1392SOL     H230376   4.439   5.199   1.293 -0.6656 -2.2200  0.6750
 1393SOL    OH230377   2.575   6.320   1.118  0.3649 -1.0287 -0.2737
 1393SOL     H130378   2.609   6.368   1.042 -1.2022 -1.3496 -1.2067
 1393SOL     H230379   2.632   6.244   1.126  0.8338 -0.7397 -0.8369
 1394SOL    OH230380   3.865   3.574   1.924  0.0929 -0.0745  0.5466
 1394SOL     H130381   3.795   3.535   1.977  0.3357  0.0821  0.9854
 1394SOL     H230382   3.942   3.521   1.943 -0.1858 -1.0227 -0.8922
 1395SOL    OH230383   3.805   1.887   0.839  0.1188 -0.3608 -0.3455
 1395SOL     H130384   3.869   1.903   0.769 -1.3635 -1.7336 -2.0533
 1395SOL     H230385   3.768   1.801   0.819  0.2226 -1.1260  2.5934
 1396SOL    OH230386   7.095   6.170   7.563 -0.8302  0.4883 -0.1464
 1396SOL     H130387   7.026   6.148   7.500 -1.2677  0.8826  0.1948
 1396SOL     H230388   7.094   6.265   7.568 -0.2165  0.4958 -0.1862
 1397SOL    OH230389   3.966   7.599   1.085 -0.2322 -0.7566 -0.1655
 1397SOL     H130390   3.944   7.656   1.159 -3.4334  1.1800 -2.4938
 1397SOL     H230391   4.043   7.640   1.045 -1.0476  0.5809 -0.3897
 1398SOL    OH230392   1.120   6.113   1.602  0.2036 -0.0847 -0.3202
 1398SOL     H130393   1.079   6.037   1.560 -1.1513 -0.3412  1.3732
 1398SOL     H230394   1.091   6.188   1.550 -0.5324 -0.4922 -0.5042
 1399SOL    OH230395   5.499   1.585   1.586 -0.0894  0.2196  0.6440
 1399SOL     H130396   5.452   1.667   1.603 -0.6884  0.1621 -0.6664
 1399SOL     H230397   5.435   1.530   1.541  0.5388 -0.7034  0.8651
 1400SOL    OH230398   7.094   1.996   0.425  0.5142 -0.2897 -0.4302
 1400SOL     H130399   7.157   2.063   0.452  0.5504 -0.1495 -0.8750
 1400SOL     H230400   7.088   2.005   0.330 -0.7608  0.2110 -0.3052
 1401SOL    OH230401   6.582   6.168   1.937 -0.1733 -0.2078 -0.2369
 1401SOL     H130402   6.618   6.249   1.901 -1.4916  0.8748  0.8083
 1401SOL     H230403   6.487   6.183   1.940 -0.2816 -1.1181  1.5961
 1402SOL    OH230404   2.207   2.899   1.407 -0.2151  0.3289  0.1169
 1402SOL     H130405   2.200   2.991   1.383  1.4198  0.4467  0.0300
 1402SOL     H230406   2.301   2.881   1.408 -0.4508 -0.9259  1.7209
 1403SOL    OH230407   6.476   7.844   0.333  0.4404 -0.3073 -0.3716
 1403SOL     H130408   6.500   7.923   0.382  1.8763 -1.0303  0.0915
 1403SOL     H230409   6.448   7.782   0.400  3.1725 -1.5745 -0.3711
 1404SOL    OH230410   1.716   1.679   1.234 -0.1307  0.6279 -0.7071
 1404SOL     H130411   1.635   1.729   1.244 -0.3385  0.2460 -0.4716
 1404SOL     H230412   1.704   1.629   1.153  0.2841  1.3444 -1.2145
 1405SOL    OH230413   0.265   4.576   7.368 -0.0723  0.4268 -0.0176
 1405SOL     H130414   0.218   4.495   7.351 -0.9237 -0.0188  3.9848
 1405SOL     H230415   0.332   4.552   7.433  1.0084  2.4873 -0.3365
 1406SOL    OH230416   2.337   6.775   1.767  0.1432 -0.2509 -0.1710
 1406SOL     H130417   2.297   6.799   1.683  1.6830  1.1795 -0.5291
 1406SOL     H230418   2.359   6.859   1.808  1.2457 -0.9634  0.7407
 1407SOL    OH230419   1.436   6.528   6.087 -0.1109  0.1548  0.3254
 1407SOL     H130420   1.389   6.574   6.017 -0.3510 -0.9181 -0.2360
 1407SOL     H230421   1.375   6.530   6.161 -0.4049  0.1269  0.0866
 1408SOL    OH230422   0.595   5.684   0.799 -0.3251 -0.4535 -0.2236
 1408SOL     H130423   0.637   5.605   0.833  0.1622  0.4820  1.3840
 1408SOL     H230424   0.506   5.681   0.835  0.2669  0.6612  1.3939
 1409SOL    OH230425   5.257   2.784   1.476 -0.2236 -0.5793 -0.2649
 1409SOL     H130426   5.268   2.782   1.381 -1.8760 -0.4542 -0.4892
 1409SOL     H230427   5.342   2.761   1.511  0.0611 -1.9710 -1.7930
 1410SOL    OH230428   3.837   5.310   1.117 -0.0634 -0.6198  0.1894
 1410SOL     H130429   3.842   5.219   1.088 -2.1047  0.1721 -2.9504
 1410SOL     H230430   3.895   5.358   1.058 -1.1708  0.4815 -0.0534
 1411SOL    OH230431   0.424   4.969   0.080  0.6156 -0.0756 -0.1157
 1411SOL     H130432   0.363   5.025   0.033 -0.5679 -1.5349 -0.3445
 1411SOL     H230433   0.415   4.995   0.172  0.9230  0.8923 -0.3568
 1412SOL    OH230434   6.802   3.235   1.879 -0.2328 -0.3676 -0.1323
 1412SOL     H130435   6.827   3.276   1.962 -1.8543  1.8542 -0.6720
 1412SOL     H230436   6.719   3.192   1.898 -1.4902  1.6092 -0.9690
 1413SOL    OH230437   5.032   3.806   1.766  0.0174  0.1056  0.1717
 1413SOL     H130438   5.088   3.733   1.790  0.1085  0.0488 -0.1999
 1413SOL     H230439   5.018   3.795   1.672  0.4944  0.8802  0.0083
 1414SOL    OH230440   5.175   1.612   1.566  0.7391  0.2169  0.6152
 1414SOL     H130441   5.231   1.536   1.550 -0.2380 -0.3117 -0.2963
 1414SOL     H230442   5.191   1.670   1.492 -0.2912 -0.1549  0.1012
 1415SOL    OH230443   5.920   0.537   7.886 -0.1084 -0.5831 -0.0199
 1415SOL     H130444   5.985   0.472   7.860  0.7148  1.0881 -2.2301
 1415SOL     H230445   5.971   0.611   7.918 -0.8963  0.8710 -2.0817
 1416SOL    OH230446   2.256   0.873   8.112 -0.2039 -0.1891 -0.2209
 1416SOL     H130447   2.258   0.851   8.019  0.4124 -3.2475  0.4620
 1416SOL     H230448   2.166   0.900   8.129 -0.8098 -1.4618 -1.3150
 1417SOL    OH230449   6.338   4.121   0.374 -0.6415  0.1107 -0.2181
 1417SOL     H130450   6.416   4.112   0.428 -0.3346 -0.0485 -0.6873
 1417SOL     H230451   6.295   4.200   0.407 -1.1152 -0.6822  1.0870
 1418SOL    OH230452   3.024   4.552   7.636 -0.2127 -0.2107 -0.7560
 1418SOL     H130453   2.989   4.641   7.648  0.7352  0.3603 -2.1255
 1418SOL     H230454   3.055   4.527   7.723 -3.3123 -0.4475  0.3653
 1419SOL    OH230455   5.418   2.578   6.051  0.1487 -0.0036 -0.4233
 1419SOL     H130456   5.459   2.536   6.125 -1.2869  0.3675  0.6157
 1419SOL     H230457   5.476   2.561   5.977  1.2204 -0.9854  0.6412
 1420SOL    OH230458   0.538   1.189   1.051  0.3665 -0.2883 -0.1177
 1420SOL     H130459   0.489   1.121   1.005  1.0141 -0.5325 -0.4461
 1420SOL     H230460   0.576   1.243   0.981  1.0486 -0.4454  0.1334
 1421SOL    OH230461   3.091   0.497   0.266 -0.1253 -0.3794  0.3454
 1421SOL     H130462   3.105   0.402   0.267 -0.4095 -0.4222  0.2644
 1421SOL     H230463   3.007   0.509   0.223 -0.2470 -0.1104  0.6511
 1422SOL    OH230464   2.609   6.643   8.290  0.1306 -0.9513  0.4217
 1422SOL     H130465   2.536   6.595   8.251 -0.3855 -1.2382  1.7125
 1422SOL     H230466   2.631   6.710   8.225 -2.4392  0.2786  0.7642
 1423SOL    OH230467   6.128   5.113   2.002 -0.2435 -0.0571 -0.5542
 1423SOL     H130468   6.209   5.099   2.050 -0.3258  0.8025 -0.1356
 1423SOL     H230469   6.155   5.137   1.914  0.0398  2.1924  0.1058
 1424SOL    OH230470   4.580   4.484   0.359  0.2704  0.0565 -0.0821
 1424SOL     H130471   4.647   4.470   0.293  0.4383  2.5396 -0.4954
 1424SOL     H230472   4.498   4.494   0.310  0.2821  1.1997  0.1047
 1425SOL    OH230473   3.822   4.990   1.327 -0.2428 -0.6961 -0.3448
 1425SOL     H130474   3.800   4.964   1.416  0.6604 -1.5546 -0.3676
 1425SOL     H230475   3.747   5.043   1.298 -1.2100 -1.6461  0.3956
 1426SOL    OH230476   5.510   5.858   0.552 -0.1231  0.1906 -0.0664
 1426SOL     H130477   5.491   5.840   0.644  0.1801 -0.1456 -0.0719
 1426SOL     H230478   5.425   5.880   0.514 -0.2207  0.5222  0.3378
 1427SOL    OH230479   7.911   4.745   7.388 -0.5510  0.0357 -0.0640
 1427SOL     H130480   7.827   4.700   7.401  0.9086 -2.8320 -0.1434
 1427SOL     H230481   7.965   4.682   7.341  1.4397  2.1303 -0.6887
 1428SOL    OH230482   2.816   6.718   0.228 -0.1746  0.2095  0.2304
 1428SOL     H130483   2.888   6.694   0.287 -2.0483  0.1378  2.5865
 1428SOL     H230484   2.805   6.641   0.172 -1.3801 -1.6594  2.9236
 1429SOL    OH230485   7.171   5.152   7.650 -0.6717 -0.1620  0.0855
 1429SOL     H130486   7.234   5.153   7.577 -0.9302 -0.6508 -0.1440
 1429SOL     H230487   7.104   5.215   7.624 -1.9879 -2.0640 -1.1838
 1430SOL    OH230488   3.115   4.498   0.570 -0.0818 -0.1158 -0.3465
 1430SOL     H130489   3.172   4.574   0.570 -1.9940  1.4040  2.0128
 1430SOL     H230490   3.056   4.512   0.496 -0.1268  0.5012 -0.2002
 1431SOL    OH230491   5.570   1.801   6.894 -0.2638  0.0497  0.3492
 1431SOL     H130492   5.519   1.805   6.975 -1.0957  1.2304 -0.2126
 1431SOL     H230493   5.661   1.801   6.924 -0.5660 -0.3486  1.3107
 1432SOL    OH230494   0.265   4.192   1.338 -0.4732 -0.0446  0.5727
 1432SOL     H130495   0.318   4.113   1.337 -0.5648 -0.1017  0.2892
 1432SOL     H230496   0.192   4.174   1.279 -1.0964 -0.1640  1.3779
 1433SOL    OH230497   2.666   4.256   6.092 -0.3048  0.4433  0.0617
 1433SOL     H130498   2.663   4.250   6.188  2.0500  1.0746  0.1898
 1433SOL     H230499   2.638   4.346   6.073 -2.4785 -0.2057  0.0245
 1434SOL    OH230500   5.222   4.437   6.343 -0.3278 -0.0551  0.3645
 1434SOL     H130501   5.285   4.384   6.295  1.7255 -0.1954  3.0662
 1434SOL     H230502   5.237   4.414   6.435 -2.5967  1.7889  1.2506
 1435SOL    OH230503   0.819   6.300   6.673  0.0155 -0.5589  0.2066
 1435SOL     H130504   0.867   6.334   6.597 -2.1639  0.7310 -0.6361
 1435SOL     H230505   0.822   6.370   6.738 -0.8009 -0.4107  0.0979
 1436SOL    OH230506   6.150   1.756   2.020 -0.3004 -0.3455 -0.8120
 1436SOL     H130507   6.171   1.772   2.112 -1.1566  0.6086 -0.7763
 1436SOL     H230508   6.180   1.666   2.004 -0.3955 -0.6143  0.4697
 1437SOL    OH230509   1.692   2.314   2.227 -0.2422  0.0241  0.6065
 1437SOL     H130510   1.726   2.293   2.314  0.1282  0.2216  0.5091
 1437SOL     H230511   1.645   2.397   2.238 -0.0736  0.1218  0.5874
 1438SOL    OH230512   5.293   1.763   0.111 -0.0647 -0.4933  0.3086
 1438SOL     H130513   5.249   1.679   0.118  1.1235 -1.1572 -0.0125
 1438SOL     H230514   5.328   1.765   0.022 -0.8632  0.7326  0.0165
 1439SOL    OH230515   6.499   7.004   6.376 -0.1345  0.3613 -0.4763
 1439SOL     H130516   6.506   6.919   6.334  0.9151 -0.6474  1.6299
 1439SOL     H230517   6.406   7.028   6.367 -0.6844 -1.5352 -0.1067
 1440SOL    OH230518   7.836   6.076   6.732  0.0453 -0.6033 -0.3402
 1440SOL     H130519   7.908   6.014   6.721  0.0277 -0.6771 -0.0487
 1440SOL     H230520   7.873   6.148   6.781  0.4517  0.3153 -1.9613
 1441SOL    OH230521   1.001   0.163   7.454 -0.3712 -0.3457 -0.1168
 1441SOL     H130522   0.953   0.106   7.515  0.0354  1.1516  1.6672
 1441SOL     H230523   0.988   0.123   7.368 -5.2572  0.2617  0.1811
 1442SOL    OH230524   0.043   3.867   1.261 -0.7015  0.3036 -0.0120
 1442SOL     H130525   0.130   3.884   1.298 -1.3016  1.0348  1.0834
 1442SOL     H230526   0.034   3.932   1.191  0.0978 -0.5398 -0.9167
 1443SOL    OH230527   2.398   2.709   7.853  0.2139 -0.4886  0.2814
 1443SOL     H130528   2.305   2.725   7.839 -0.0558 -2.4462 -0.2737
 1443SOL     H230529   2.439   2.725   7.768 -0.0363 -2.5396 -0.2365
 1444SOL    OH230530   3.916   1.754   1.293  0.1351  0.3359  0.4841
 1444SOL     H130531   3.979   1.804   1.242 -2.0774 -0.0723 -2.8359
 1444SOL     H230532   3.885   1.815   1.360  0.6414  2.0543 -0.8079
 1445SOL    OH230533   7.451   3.360   1.376 -0.6546 -0.4596 -0.0715
 1445SOL     H130534   7.389   3.379   1.446 -1.6845  0.6813 -1.2724
 1445SOL     H230535   7.501   3.284   1.408 -1.4867 -0.3127  1.6337
 1446SOL    OH230536   3.533   5.901   1.531 -0.0391  0.5456 -0.2011
 1446SOL     H130537   3.596   5.920   1.461 -1.6305  2.6492 -1.1337
 1446SOL     H230538   3.519   5.807   1.526  0.6516  0.5244 -2.0813
 1447SOL    OH230539   3.934   6.399   7.160  0.2510 -0.0459 -0.6977
 1447SOL     H130540   3.949   6.337   7.232 -1.9397  0.1318 -0.0760
 1447SOL     H230541   4.005   6.463   7.168  2.0075 -1.9174 -0.7890
 1448SOL    OH230542   6.699   5.067   8.256 -0.1684 -0.2232  0.0617
 1448SOL     H130543   6.775   5.068   8.198 -1.4741 -0.9011 -1.7012
 1448SOL     H230544   6.673   4.975   8.258 -0.9528  0.0114  0.6544
 1449SOL    OH230545   4.595   5.138   6.571 -0.0999 -0.2018  0.2932
 1449SOL     H130546   4.620   5.197   6.642  0.1122  0.3646 -0.2464
 1449SOL     H230547   4.647   5.059   6.585  1.8030  0.8557 -0.6577
 1450SOL    OH230548   2.887   4.278   0.920 -0.2912  0.2984  0.0007
 1450SOL     H130549   2.894   4.183   0.911  0.8505  0.4534 -0.7705
 1450SOL     H230550   2.903   4.312   0.832 -2.8933  1.1126 -0.2045
 1451SOL    OH230551   2.454   7.671   1.246  0.2212  0.6034 -0.3197
 1451SOL     H130552   2.378   7.727   1.231  0.1828  0.5493 -0.3264
 1451SOL     H230553   2.429   7.617   1.322  0.0478  0.2232 -0.6465
 1452SOL    OH230554   7.891   4.889   0.609 -0.0379 -0.3048 -1.0125
 1452SOL     H130555   7.839   4.820   0.649 -0.3249 -0.5347 -1.7785
 1452SOL     H230556   7.971   4.845   0.578  1.3544  0.3238  1.5807
 1453SOL    OH230557   6.903   2.225   2.060 -0.5531 -0.1329 -0.0508
 1453SOL     H130558   6.920   2.303   2.113 -1.1286  0.2256 -0.3829
 1453SOL     H230559   6.930   2.152   2.115 -0.6079  0.2678  0.5159
 1454SOL    OH230560   3.837   6.132   0.161  0.2411  0.2961  0.7621
 1454SOL     H130561   3.816   6.088   0.079 -0.5073 -0.5872  1.4150
 1454SOL     H230562   3.863   6.221   0.135  2.5310 -0.7456 -0.6131
 1455SOL    OH230563   7.882   6.164   0.520 -0.0269  0.4276  0.5055
 1455SOL     H130564   7.972   6.193   0.501 -0.0199  1.0220  1.3926
 1455SOL     H230565   7.893   6.087   0.576 -0.0718  0.3696  0.4351
 1456SOL    OH230566   3.374   6.860   7.814 -0.3060  0.2468 -0.1268
 1456SOL     H130567   3.384   6.769   7.785 -1.0474  0.5351 -1.3318
 1456SOL     H230568   3.456   6.902   7.788 -0.5036  0.2313 -0.7910
 1457SOL    OH230569   1.516   1.950   7.717 -0.0280  0.6013 -0.0564
 1457SOL     H130570   1.440   1.936   7.661  0.6508 -1.8756 -0.4110
 1457SOL     H230571   1.592   1.945   7.658  0.5584  0.3862  0.6995
 1458SOL    OH230572   3.547   5.602   5.650  0.0951  0.0666  0.4297
 1458SOL     H130573   3.587   5.689   5.651  0.0410  0.1029 -0.3685
 1458SOL     H230574   3.454   5.618   5.638 -0.0662 -0.0580  1.4198
 1459SOL    OH230575   0.531   0.700   8.131 -0.2568 -0.9500 -0.2811
 1459SOL     H130576   0.602   0.640   8.108 -1.2761 -1.4208 -2.2673
 1459SOL     H230577   0.459   0.675   8.073 -0.3925  2.8335 -1.8711
 1460SOL    OH230578   2.699   6.870   7.202  0.2130  0.2472  0.0348
 1460SOL     H130579   2.787   6.836   7.184  0.1483  0.3800 -0.5395
 1460SOL     H230580   2.694   6.951   7.152 -0.4798 -0.1079 -0.4793
 1461SOL    OH230581   7.501   7.133   6.068 -0.1792  0.1887  0.3559
 1461SOL     H130582   7.553   7.053   6.076 -0.4818 -0.5453 -3.9002
 1461SOL     H230583   7.411   7.102   6.060 -0.3944  0.9813 -0.3355
 1462SOL    OH230584   0.447   7.663   5.425  0.1229 -0.2617  0.3843
 1462SOL     H130585   0.518   7.707   5.472  2.1889 -1.4881 -1.4793
 1462SOL     H230586   0.395   7.733   5.387  0.2853  0.6534  1.8332
 1463SOL    OH230587   0.462   5.416   0.467  0.2124  0.1200 -0.1211
 1463SOL     H130588   0.482   5.359   0.541  1.0178  0.1390 -0.3281
 1463SOL     H230589   0.366   5.425   0.470  0.0758 -1.2221 -0.0807
 1464SOL    OH230590   3.946   5.453   0.285  0.2762 -0.4067  0.3773
 1464SOL     H130591   3.864   5.420   0.248  0.3083 -0.0324 -0.0380
 1464SOL     H230592   3.929   5.546   0.301  0.5710 -0.3628  0.4382
 1465SOL    OH230593   1.813   7.842   1.829 -0.0861  0.2799  0.2050
 1465SOL     H130594   1.817   7.794   1.912 -0.3351 -0.2602 -0.0913
 1465SOL     H230595   1.753   7.915   1.846  0.3096  0.5019  0.6628
 1466SOL    OH230596   3.898   4.705   7.759  0.2748 -0.8078  0.1961
 1466SOL     H130597   3.921   4.619   7.793 -2.4446 -1.6226  0.0923
 1466SOL     H230598   3.900   4.695   7.664  0.2612 -0.6629  0.1806
 1467SOL    OH230599   7.128   2.954   7.521  0.0392  0.4060  0.5718
 1467SOL     H130600   7.139   3.022   7.454 -1.0164 -1.3928 -1.4885
 1467SOL     H230601   7.208   2.960   7.574  1.3045  1.3283 -1.3475
 1468SOL    OH230602   6.774   2.123   6.978  0.5181  0.1992  0.3282
 1468SOL     H130603   6.834   2.052   7.000  0.6845  0.2847  0.1529
 1468SOL     H230604   6.783   2.134   6.883 -1.2308 -1.1191 -0.0251
 1469SOL    OH230605   4.213   5.117   7.098  0.6433 -0.1466 -0.1660
 1469SOL     H130606   4.228   5.206   7.132 -1.7764  0.7920 -1.4489
 1469SOL     H230607   4.176   5.131   7.011  1.2160 -2.4591 -0.8089
 1470SOL    OH230608   3.177   4.421   8.174 -0.1003  0.3102 -0.4108
 1470SOL     H130609   3.096   4.395   8.218 -0.7278  1.5672 -0.7730
 1470SOL     H230610   3.224   4.473   8.240 -0.5413  1.2836 -0.8488
 1471SOL    OH230611   1.069   7.398   0.688  0.0131  0.5409 -0.4649
 1471SOL     H130612   1.137   7.359   0.633 -1.8782 -1.1510 -1.6254
 1471SOL     H230613   0.994   7.409   0.631 -1.5337  0.0640  1.4206
 1472SOL    OH230614   2.815   2.784   6.553  0.5853 -0.2124 -0.2191
 1472SOL     H130615   2.867   2.706   6.570  0.0795 -0.1725  1.5982
 1472SOL     H230616   2.823   2.836   6.633 -1.5778  0.1481 -0.1988
 1473SOL    OH230617   7.961   7.926   2.414 -0.0396  0.3894 -0.1671
 1473SOL     H130618   8.015   7.907   2.337 -2.2505 -1.4062 -1.3227
 1473SOL     H230619   7.886   7.868   2.405 -0.2399 -0.0180  3.4890
 1474SOL    OH230620   7.373   1.368   6.213  0.0896 -0.2038 -0.0226
 1474SOL     H130621   7.432   1.346   6.140 -0.6602 -1.3696 -0.2890
 1474SOL     H230622   7.427   1.357   6.291  0.6796  0.2985 -0.3524
 1475SOL    OH230623   1.365   1.963   7.498 -0.1835  0.0059  0.5846
 1475SOL     H130624   1.448   1.991   7.459  0.2656 -0.6691  1.0398
 1475SOL     H230625   1.344   1.881   7.453 -1.6442  1.1656 -0.9580
 1476SOL    OH230626   1.232   2.093   0.653  0.0505 -0.2781 -0.3657
 1476SOL     H130627   1.310   2.089   0.708  0.8540 -1.1882 -1.5663
 1476SOL     H230628   1.264   2.120   0.567 -1.0347 -0.1006 -0.7263
 1477SOL    OH230629   1.117   1.644   1.061  0.3891  0.0918  0.0008
 1477SOL     H130630   1.147   1.709   1.125 -1.6600 -1.5522  2.7261
 1477SOL     H230631   1.193   1.588   1.047  0.8346  0.3870  1.1398
 1478SOL    OH230632   0.295   4.986   1.042 -0.3277 -0.0944 -0.0808
 1478SOL     H130633   0.366   5.040   1.007 -1.9505  3.3159  1.7074
 1478SOL     H230634   0.335   4.938   1.115  0.1304  1.9840  1.0649
 1479SOL    OH230635   2.884   0.046   5.579  0.8199 -0.2788 -0.4378
 1479SOL     H130636   2.796   0.054   5.615 -0.0469  0.3971 -2.6713
 1479SOL     H230637   2.903   0.131   5.541  2.0091 -0.7462 -0.9234
 1480SOL    OH230638   0.745   3.248   7.491 -0.4480  0.1394 -0.0625
 1480SOL     H130639   0.840   3.244   7.502 -0.5314  0.1788  0.7114
 1480SOL     H230640   0.719   3.329   7.535 -0.5989  1.2400 -2.1112
 1481SOL    OH230641   6.528   6.080   7.195 -0.2292 -0.0081 -0.4120
 1481SOL     H130642   6.502   6.036   7.276  0.1051 -0.5097 -0.5758
 1481SOL     H230643   6.457   6.060   7.134  0.7190 -1.6890 -0.9699
 1482SOL    OH230644   4.607   6.028   7.459 -0.2632  0.1787  0.6837
 1482SOL     H130645   4.610   5.939   7.492  1.3280  0.3475  1.0438
 1482SOL     H230646   4.699   6.054   7.452 -0.4935  0.1903 -3.8068
 1483SOL    OH230647   1.832   6.435   0.218  0.2707  0.3487  0.6981
 1483SOL     H130648   1.910   6.416   0.166 -0.3777 -1.8592  0.4466
 1483SOL     H230649   1.838   6.528   0.238  3.4927  0.0166  1.5453
 1484SOL    OH230650   5.836   7.374   1.029 -0.0069 -0.2681  0.0244
 1484SOL     H130651   5.754   7.330   1.052 -0.2734 -0.2157 -0.7957
 1484SOL     H230652   5.865   7.329   0.949 -0.1419  0.8561 -0.6644
 1485SOL    OH230653   6.513   6.713   7.936  0.0040  0.4797  0.1794
 1485SOL     H130654   6.494   6.626   7.970  1.7314  0.2859  0.7054
 1485SOL     H230655   6.593   6.702   7.885 -0.3315  1.5586 -0.5921
 1486SOL    OH230656   4.590   5.839   1.232  0.6082 -0.6307  0.2438
 1486SOL     H130657   4.640   5.918   1.209  1.2164 -1.4007 -1.1596
 1486SOL     H230658   4.571   5.798   1.148 -2.8361 -0.1214  0.7376
 1487SOL    OH230659   4.278   2.485   7.218 -0.1217 -0.7048 -0.2768
 1487SOL     H130660   4.257   2.560   7.274  1.8496 -0.3773  0.0791
 1487SOL     H230661   4.283   2.521   7.130 -1.3612 -0.8475 -0.4020
 1488SOL    OH230662   0.323   7.199   6.133  0.4058  0.0335 -0.1040
 1488SOL     H130663   0.321   7.200   6.037  1.3884  1.9467 -0.1303
 1488SOL     H230664   0.241   7.158   6.158 -0.3086  0.3965 -1.7651
 1489SOL    OH230665   0.068   3.745   2.387 -0.3107 -0.1244 -0.4889
 1489SOL     H130666   0.145   3.800   2.374 -1.1392  1.1338 -0.1923
 1489SOL     H230667   0.041   3.720   2.298  1.7917 -2.5332 -0.5074
 1490SOL    OH230668   1.302   7.425   8.138 -0.1233 -0.0840  0.0066
 1490SOL     H130669   1.309   7.519   8.158  1.3956 -0.2131  0.1606
 1490SOL     H230670   1.268   7.422   8.049  1.0878  0.6522 -0.4964
 1491SOL    OH230671   1.381   5.763   0.985 -0.4209 -0.0535 -0.6394
 1491SOL     H130672   1.300   5.726   0.950 -0.9358  0.7106 -0.2716
 1491SOL     H230673   1.362   5.782   1.077  0.9261 -2.0437  0.0823
 1492SOL    OH230674   0.857   3.999   0.475  0.4181 -0.4239  0.0343
 1492SOL     H130675   0.937   4.035   0.438  0.4686 -1.2419 -0.6736
 1492SOL     H230676   0.880   3.977   0.565  0.8757 -0.2750 -0.0475
 1493SOL    OH230677   0.965   4.851   5.724 -0.0124  0.0954 -0.5071
 1493SOL     H130678   0.906   4.776   5.732 -0.2360  0.1261 -1.8072
 1493SOL     H230679   1.049   4.813   5.699  0.2260  0.1711  0.1441
 1494SOL    OH230680   0.633   2.657   7.478 -0.4042 -0.5295  0.6608
 1494SOL     H130681   0.615   2.567   7.506 -2.9025 -0.2921 -0.0440
 1494SOL     H230682   0.595   2.711   7.547 -1.2598  0.0058 -0.2248
 1495SOL    OH230683   4.618   4.756   0.724  0.3305 -0.2444  0.1618
 1495SOL     H130684   4.690   4.694   0.736 -0.4663 -0.8677  1.7046
 1495SOL     H230685   4.625   4.781   0.631  1.1294 -2.0360 -0.2950
 1496SOL    OH230686   3.490   3.302   1.114 -0.5944  0.0479  0.6024
 1496SOL     H130687   3.450   3.237   1.056 -0.9902  1.3348 -0.6065
 1496SOL     H230688   3.438   3.382   1.099  2.0330  1.6102 -0.5510
 1497SOL    OH230689   1.728   0.345   8.242 -0.0534  0.0251  0.3540
 1497SOL     H130690   1.677   0.266   8.222  0.7069 -0.1014 -1.1630
 1497SOL     H230691   1.687   0.381   8.320 -1.2628 -1.1357  0.2675
 1498SOL    OH230692   5.032   2.001   0.596  0.0827  0.0129  0.1924
 1498SOL     H130693   5.097   2.014   0.527 -1.3056  1.4560 -0.8732
 1498SOL     H230694   5.082   2.006   0.678  1.5437 -0.4917 -0.6611
 1499SOL    OH230695   5.098   7.241   7.766  0.3186 -0.2625  0.3733
 1499SOL     H130696   5.037   7.168   7.775  0.2171 -0.1115  0.9004
 1499SOL     H230697   5.058   7.298   7.700  0.0224 -0.2900  0.5306
 1500SOL    OH230698   7.287   0.976   6.171  0.3520 -0.3583  0.3547
 1500SOL     H130699   7.221   0.961   6.103  0.9383 -4.1385  0.5137
 1500SOL     H230700   7.367   0.996   6.123 -0.1968  1.1874  0.0732
 1501SOL    OH230701   0.426   2.464   8.005 -0.2542 -0.0431 -0.1869
 1501SOL     H130702   0.421   2.393   8.068 -2.0153 -0.9616 -1.3387
 1501SOL     H230703   0.349   2.453   7.949 -0.4234  2.5967 -0.5524
 1502SOL    OH230704   0.013   0.825   1.561 -0.0237 -0.1626 -0.3387
 1502SOL     H130705  -0.067   0.878   1.560 -0.6834 -0.9971  2.4032
 1502SOL     H230706   0.082   0.884   1.531 -1.5776  0.7055 -2.3182
 1503SOL    OH230707   2.122   3.069   0.775  0.6957 -0.0741 -0.3301
 1503SOL     H130708   2.184   3.129   0.817  1.3947 -0.3586 -0.9503
 1503SOL     H230709   2.048   3.125   0.752  0.2172  0.0520  1.4400
 1504SOL    OH230710   1.685   3.530   7.719 -0.0098  0.2113 -0.1663
 1504SOL     H130711   1.634   3.467   7.668 -1.2767 -0.8478  2.3517
 1504SOL     H230712   1.654   3.616   7.689 -2.3212 -0.4122  0.3548
 1505SOL    OH230713   6.954   2.213   1.098 -0.0913 -0.2654 -0.2356
 1505SOL     H130714   7.030   2.169   1.061 -0.7023 -0.0915 -1.7470
 1505SOL     H230715   6.989   2.292   1.139  0.5036  0.0230 -1.2751
 1506SOL    OH230716   7.058   6.889   0.114  0.6452  0.0718  0.0575
 1506SOL     H130717   7.081   6.817   0.173  0.5094 -0.4783 -0.5606
 1506SOL     H230718   7.039   6.847   0.030  1.4536  0.9049 -0.5564
 1507SOL    OH230719   5.593   3.277   0.292 -0.2323 -0.8602 -0.3328
 1507SOL     H130720   5.510   3.285   0.339  0.0812  0.6869  0.0093
 1507SOL     H230721   5.657   3.256   0.360 -0.2213 -1.2675 -0.4713
 1508SOL    OH230722   4.385   3.157   7.208 -0.6966 -0.2567  0.0490
 1508SOL     H130723   4.451   3.169   7.276  1.8238  1.5983 -2.5868
 1508SOL     H230724   4.308   3.202   7.242  0.8109  1.4901  1.3109
 1509SOL    OH230725   6.617   4.817   0.212 -0.0679 -0.0941 -0.5160
 1509SOL     H130726   6.648   4.864   0.289 -0.0189 -1.8087  0.5524
 1509SOL     H230727   6.573   4.739   0.247 -2.9111  0.7191 -2.1223
 1510SOL    OH230728   4.941   4.609   1.465 -0.4802  0.3952 -0.0980
 1510SOL     H130729   5.026   4.637   1.433 -1.1659  1.7340 -0.7901
 1510SOL     H230730   4.917   4.536   1.409  0.7765 -0.8451  0.9338
 1511SOL    OH230731   1.578   7.765   1.555  0.2218  0.3246 -0.0190
 1511SOL     H130732   1.643   7.804   1.614  1.8517 -2.5581  0.1633
 1511SOL     H230733   1.510   7.732   1.613 -1.0998  2.6480 -0.1670
 1512SOL    OH230734   1.425   2.932   1.275 -0.3378 -0.3524  0.3461
 1512SOL     H130735   1.430   2.912   1.368  1.4678  0.1750  0.3685
 1512SOL     H230736   1.334   2.961   1.262 -0.8335 -1.2122  1.7635
 1513SOL    OH230737   1.416   7.664   1.715 -0.3716 -0.6386 -0.0105
 1513SOL     H130738   1.401   7.701   1.802 -1.8988 -0.4886 -0.3241
 1513SOL     H230739   1.328   7.648   1.681  0.2422 -3.7327 -0.2426
 1514SOL    OH230740   6.074   3.827   3.024 -0.0503  0.7706 -0.2932
 1514SOL     H130741   6.005   3.879   3.066 -0.2223  0.2972  0.0171
 1514SOL     H230742   6.054   3.831   2.931 -1.0515 -0.1548 -0.1220
 1515SOL    OH230743   6.861   6.041   0.608 -0.1502 -0.6999  0.2719
 1515SOL     H130744   6.877   6.123   0.560 -0.4440 -1.2489 -0.7729
 1515SOL     H230745   6.888   5.972   0.548 -2.2646 -1.4714  0.1752
 1516SOL    OH230746   7.020   3.342   2.073  0.1655 -0.2947 -0.3314
 1516SOL     H130747   6.981   3.395   2.142 -1.9170 -0.3772 -1.4119
 1516SOL     H230748   7.054   3.265   2.119 -1.0077 -0.2549  0.6297
 1517SOL    OH230749   2.188   5.451   8.213 -0.8255  1.2200  0.5105
 1517SOL     H130750   2.113   5.428   8.158  0.9462  1.3189 -2.0201
 1517SOL     H230751   2.213   5.539   8.184  1.8045  0.2043 -0.4582
 1518SOL    OH230752   7.117   3.002   2.534  0.2205 -0.2165  0.0006
 1518SOL     H130753   7.154   2.985   2.447 -0.3563 -2.3580  0.1580
 1518SOL     H230754   7.025   3.020   2.518 -0.0287 -1.2713  0.2245
 1519SOL    OH230755   7.605   5.358   6.063 -0.3407 -0.2553 -0.2080
 1519SOL     H130756   7.511   5.379   6.059 -0.7797 -1.9252  0.8674
 1519SOL     H230757   7.631   5.344   5.972 -1.4478 -1.0841 -0.4092
 1520SOL    OH230758   7.793   7.198   0.736  0.1963  0.4183 -1.0750
 1520SOL     H130759   7.721   7.172   0.678 -0.4620 -0.9381  0.3039
 1520SOL     H230760   7.799   7.293   0.725 -1.5146  0.4960 -1.5591
 1521SOL    OH230761   5.686   6.482   6.344  0.0706 -0.1694  0.0771
 1521SOL     H130762   5.685   6.448   6.254  1.6767  3.0719 -1.2561
 1521SOL     H230763   5.774   6.464   6.376 -0.3050 -0.7588  0.7962
 1522SOL    OH230764   7.023   1.063   1.858  0.2848  0.3098  0.0702
 1522SOL     H130765   7.082   1.112   1.916 -0.4360 -0.0047  1.0797
 1522SOL     H230766   7.069   1.060   1.775  1.5294  0.4153  0.7410
 1523SOL    OH230767   3.552   0.813   6.117  0.8179  0.8458  0.3066
 1523SOL     H130768   3.620   0.875   6.093  1.6130  0.2017  0.8786
 1523SOL     H230769   3.495   0.809   6.041 -0.0251  3.3231  0.7505
 1524SOL    OH230770   3.621   2.949   1.751  0.3006  0.0635  0.1114
 1524SOL     H130771   3.612   2.965   1.657  0.5650  0.4016  0.1424
 1524SOL     H230772   3.557   2.880   1.770  0.1639  0.0782 -0.2936
 1525SOL    OH230773   0.148   7.327   6.983  0.1876 -0.6975  0.2095
 1525SOL     H130774   0.188   7.413   7.000  0.4649 -0.6254 -0.7855
 1525SOL     H230775   0.216   7.277   6.939 -1.0056 -0.3565 -2.1075
 1526SOL    OH230776   1.075   6.680   6.760  0.1155  0.6370 -0.0202
 1526SOL     H130777   1.104   6.772   6.755 -0.3425  0.7698 -0.2755
 1526SOL     H230778   1.005   6.674   6.695  1.2785 -0.3272 -1.1961
 1527SOL    OH230779   4.709   5.068   2.062 -0.3507 -0.0822  0.0386
 1527SOL     H130780   4.788   5.031   2.023  0.2725 -0.5752  1.7328
 1527SOL     H230781   4.741   5.128   2.129 -1.3634 -1.9467  2.2949
 1528SOL    OH230782   2.505   0.621   6.467 -0.3592 -0.3798 -0.0746
 1528SOL     H130783   2.519   0.685   6.538 -1.8927  1.9394 -1.7992
 1528SOL     H230784   2.576   0.638   6.406 -1.1276  0.1145 -0.8366
 1529SOL    OH230785   3.989   1.898   1.764 -0.2039  0.2630 -0.0619
 1529SOL     H130786   3.992   1.954   1.841 -1.6984  1.1090 -0.6008
 1529SOL     H230787   3.920   1.834   1.783 -0.0490 -0.0023 -0.3771
 1530SOL    OH230788   5.101   2.725   8.218 -0.1054 -0.0201 -0.0952
 1530SOL     H130789   5.169   2.660   8.234 -0.4489 -0.1714  0.7535
 1530SOL     H230790   5.051   2.690   8.145  0.6362  0.0178 -0.6222
 1531SOL    OH230791   1.963   5.935   0.352 -0.0272  0.4256  0.2501
 1531SOL     H130792   2.033   5.911   0.291 -0.8842  0.1621 -0.6502
 1531SOL     H230793   1.934   6.021   0.322  2.8978  2.5557  3.3439
 1532SOL    OH230794   1.955   4.548   6.512 -0.0649 -0.2000 -0.1389
 1532SOL     H130795   2.032   4.600   6.535 -0.6252  0.0131  1.3188
 1532SOL     H230796   1.940   4.492   6.589 -1.8532  0.3500 -0.0745
 1533SOL    OH230797   3.750   4.541   6.445 -0.0680 -0.1364  0.2959
 1533SOL     H130798   3.812   4.613   6.452 -1.1222  0.8001  0.0569
 1533SOL     H230799   3.699   4.561   6.367 -1.2898 -0.4223  1.0146
 1534SOL    OH230800   4.650   1.930   7.206 -0.0295  0.4595  0.0299
 1534SOL     H130801   4.642   1.933   7.111  1.0108 -0.3686 -0.0980
 1534SOL     H230802   4.736   1.968   7.224 -0.0597  0.2610  0.5975
 1535SOL    OH230803   6.062   2.388   7.879  0.1490 -0.3116  0.3671
 1535SOL     H130804   5.998   2.350   7.819  0.9904 -1.7231  0.3284
 1535SOL     H230805   6.141   2.401   7.826  1.2869 -2.6847  1.3997
 1536SOL    OH230806   2.605   5.537   1.258  0.0009  0.3459 -1.0756
 1536SOL     H130807   2.615   5.628   1.287  1.6433 -0.2307  0.2382
 1536SOL     H230808   2.693   5.500   1.265 -1.2189 -2.2370  1.4537
 1537SOL    OH230809   4.595   3.676   7.178 -0.1842 -0.7192  0.1167
 1537SOL     H130810   4.527   3.694   7.243  1.4386  2.9156  0.9393
 1537SOL     H230811   4.677   3.684   7.227  0.9894  0.1403 -1.9375
 1538SOL    OH230812   7.071   5.550   0.603  0.0014  0.3154 -0.0234
 1538SOL     H130813   7.098   5.469   0.646  2.5457  0.5928 -0.9998
 1538SOL     H230814   7.086   5.534   0.510  0.9924  2.0263 -0.1908
 1539SOL    OH230815   1.210   6.530   0.266  0.4886 -0.5928  0.0876
 1539SOL     H130816   1.242   6.560   0.351  0.1357 -3.6846  1.3611
 1539SOL     H230817   1.288   6.501   0.219  0.7370  1.5082 -0.8561
 1540SOL    OH230818   5.748   0.790   8.193  0.6880  0.3257  0.6007
 1540SOL     H130819   5.653   0.792   8.188  0.5626 -1.8581  1.8022
 1540SOL     H230820   5.775   0.874   8.157 -1.6657  0.7847 -0.1819
 1541SOL    OH230821   5.427   0.579   0.370 -0.1307 -0.0556 -0.4152
 1541SOL     H130822   5.337   0.597   0.342 -0.2749  0.5089  0.4155
 1541SOL     H230823   5.478   0.585   0.289 -0.8826 -0.6957 -0.9462
 1542SOL    OH230824   7.396   3.022   0.114 -0.5034 -0.2593 -0.4162
 1542SOL     H130825   7.410   3.115   0.098 -1.9072 -0.0344 -0.4211
 1542SOL     H230826   7.363   2.988   0.030  0.3873 -0.8429 -0.5341
 1543SOL    OH230827   7.114   4.226   0.254 -0.4167  0.0630  0.0580
 1543SOL     H130828   7.050   4.159   0.230 -0.3378  0.3441 -0.9900
 1543SOL     H230829   7.149   4.256   0.170  1.3348 -0.3149  0.6395
 1544SOL    OH230830   3.623   1.607   2.511  0.0965  0.0456 -0.1928
 1544SOL     H130831   3.538   1.582   2.473 -0.0789  0.2123  0.0846
 1544SOL     H230832   3.600   1.660   2.588  0.4583  0.6366 -0.4872
 1545SOL    OH230833   1.543   3.770   7.346  0.0655 -0.1303 -0.3425
 1545SOL     H130834   1.632   3.805   7.345 -0.2216  0.6112 -1.2515
 1545SOL     H230835   1.491   3.836   7.300 -0.8181 -0.9192 -0.5015
 1546SOL    OH230836   6.959   4.750   6.179  0.2389  0.3109 -0.4556
 1546SOL     H130837   7.005   4.672   6.211  1.9275  1.4027 -0.1615
 1546SOL     H230838   6.870   4.741   6.214  0.8895 -0.6318  1.0043
 1547SOL    OH230839   0.268   0.774   0.231 -0.0001 -0.0497  0.2333
 1547SOL     H130840   0.287   0.776   0.325  0.3634 -2.4244  0.2428
 1547SOL     H230841   0.221   0.692   0.218  1.2539 -0.4648 -1.9019
 1548SOL    OH230842   7.691   6.177   1.221 -0.1404  0.2745 -0.3450
 1548SOL     H130843   7.622   6.127   1.177 -0.7210 -0.6664  1.5302
 1548SOL     H230844   7.644   6.240   1.275  0.3422 -1.4125  2.1617
 1549SOL    OH230845   2.484   6.074   1.891  0.4675  0.3478 -0.4681
 1549SOL     H130846   2.432   6.100   1.967  0.0857 -0.8950 -0.2941
 1549SOL     H230847   2.521   5.989   1.914  2.2873  1.0412 -0.7430
 1550SOL    OH230848   6.234   5.088   6.441  0.1248 -0.2232 -0.1019
 1550SOL     H130849   6.272   5.156   6.386 -0.3415  0.5373  0.5037
 1550SOL     H230850   6.144   5.116   6.455  0.8663  0.8540  2.9860
 1551SOL    OH230851   1.082   1.161   7.252 -0.2705  0.2736 -0.0063
 1551SOL     H130852   1.128   1.137   7.332  1.1224  0.4113 -0.7606
 1551SOL     H230853   1.122   1.243   7.225 -0.9549  0.3926 -0.6849
 1552SOL    OH230854   1.244   4.639   0.731 -0.3784 -0.2376  0.5769
 1552SOL     H130855   1.225   4.729   0.758 -0.9968 -0.2030  0.0405
 1552SOL     H230856   1.161   4.593   0.744 -0.3622 -0.4841 -0.1775
 1553SOL    OH230857   2.721   1.481   0.861  0.1751 -0.0169 -0.1762
 1553SOL     H130858   2.696   1.433   0.782  0.6665  0.6579 -0.7435
 1553SOL     H230859   2.817   1.480   0.861  0.1795 -0.9777  1.0045
 1554SOL    OH230860   7.664   5.693   1.179  0.3090  0.0034 -0.3833
 1554SOL     H130861   7.629   5.606   1.160  2.3331 -1.1050  0.7807
 1554SOL     H230862   7.664   5.698   1.274  0.5141  1.1558 -0.4406
 1555SOL    OH230863   3.079   0.072   7.047 -0.4578 -0.3222  0.6734
 1555SOL     H130864   3.094   0.076   7.141  0.4040 -2.1354  0.6274
 1555SOL     H230865   3.059  -0.020   7.029 -0.2660 -0.0624 -0.9728
 1556SOL    OH230866   3.066   0.414   6.027  0.3092  0.7745 -0.8683
 1556SOL     H130867   3.001   0.360   5.982 -0.5886  0.9752  0.1805
 1556SOL     H230868   3.039   0.414   6.119  1.7514  0.9170 -0.4275
 1557SOL    OH230869   3.665   4.436   6.789  0.3703  0.0958 -0.1586
 1557SOL     H130870   3.578   4.451   6.827  0.1374 -2.0558  0.2451
 1557SOL     H230871   3.657   4.352   6.744  2.2126 -0.0812 -0.1986
 1558SOL    OH230872   4.204   0.658   2.223  0.3713 -0.5711 -0.4994
 1558SOL     H130873   4.245   0.735   2.262 -1.0959 -0.3424  0.6388
 1558SOL     H230874   4.231   0.586   2.279  0.0073 -0.5689 -0.3243
 1559SOL    OH230875   2.087   5.073   6.201 -0.4388  0.0211 -0.2001
 1559SOL     H130876   2.047   4.997   6.158  0.8890 -0.7330 -0.1360
 1559SOL     H230877   2.069   5.061   6.294  0.0315 -0.3844 -0.1587
 1560SOL    OH230878   5.988   4.131   2.932 -0.3241 -0.0508  0.0329
 1560SOL     H130879   5.970   4.220   2.962 -0.9330 -0.3868  0.6846
 1560SOL     H230880   5.934   4.076   2.988 -0.1143 -0.8173 -0.5128
 1561SOL    OH230881   4.322   5.545   1.222 -0.3209  0.0159 -0.3953
 1561SOL     H130882   4.229   5.547   1.244 -0.6140 -1.4558 -1.4316
 1561SOL     H230883   4.339   5.629   1.180 -0.9980  0.5959  0.4701
 1562SOL    OH230884   7.147   7.727   8.146  0.5121 -0.4232  0.4190
 1562SOL     H130885   7.221   7.673   8.171  0.2912 -0.3519  1.2288
 1562SOL     H230886   7.089   7.669   8.097  1.7387 -0.1504 -1.4340
 1563SOL    OH230887   2.646   1.642   6.733  0.4798 -0.1077  0.0364
 1563SOL     H130888   2.582   1.651   6.804  0.1320  0.4489 -0.3440
 1563SOL     H230889   2.722   1.602   6.775 -0.7445 -2.4050  0.1205
 1564SOL    OH230890   2.528   7.890   0.257  0.3259 -0.1616  0.3305
 1564SOL     H130891   2.608   7.838   0.258  0.3610 -0.1009  0.5631
 1564SOL     H230892   2.494   7.884   0.346  0.6353  0.6854  0.5120
 1565SOL    OH230893   0.809   3.804   1.675 -0.2528  0.0440  0.4011
 1565SOL     H130894   0.841   3.715   1.686 -1.6761 -0.7138 -1.4045
 1565SOL     H230895   0.735   3.797   1.614 -0.7392  2.3731  0.6431
 1566SOL    OH230896   7.521   5.868   7.572  0.1008 -0.3136 -0.4749
 1566SOL     H130897   7.441   5.832   7.533 -1.0722 -0.4280  1.9937
 1566SOL     H230898   7.509   5.962   7.568  0.5456 -0.2862 -1.4836
 1567SOL    OH230899   0.903   2.961   7.089 -0.3912  0.6541  0.2525
 1567SOL     H130900   0.900   2.899   7.016  0.5454 -0.6355  1.2858
 1567SOL     H230901   0.819   2.950   7.133 -0.7989  1.1521 -0.3926
 1568SOL    OH230902   6.470   0.435   6.761 -0.4558  0.2916  0.0898
 1568SOL     H130903   6.519   0.412   6.840 -0.8319 -0.2169  0.1732
 1568SOL     H230904   6.538   0.458   6.697 -0.1355  0.2799  0.4244
 1569SOL    OH230905   6.015   0.493   6.185 -0.1254 -0.3725  0.0977
 1569SOL     H130906   5.943   0.469   6.127  0.2313 -1.5020  0.1087
 1569SOL     H230907   6.049   0.574   6.147 -0.3576 -0.7069 -0.8593
 1570SOL    OH230908   6.238   2.808   0.079  0.0210 -0.0677  0.1900
 1570SOL     H130909   6.275   2.723   0.058 -1.5828 -0.9534  0.8382
 1570SOL     H230910   6.301   2.871   0.045  0.4878 -1.4924 -1.6461
 1571SOL    OH230911   7.039   0.494   7.867 -0.3618  0.2771  0.3870
 1571SOL     H130912   7.013   0.539   7.787  1.7389 -0.6719 -0.8588
 1571SOL     H230913   6.960   0.450   7.898 -0.6259 -1.3371 -2.4852
 1572SOL    OH230914   5.576   2.905   7.783 -0.6412 -0.6916 -0.2191
 1572SOL     H130915   5.522   2.983   7.794  0.8557  0.5494 -1.3317
 1572SOL     H230916   5.637   2.908   7.858 -0.5801 -0.7830 -0.2651
 1573SOL    OH230917   5.747   1.602   1.111 -0.1931  0.3725  0.1482
 1573SOL     H130918   5.749   1.551   1.192  4.8530  0.6121  0.3561
 1573SOL     H230919   5.738   1.693   1.141 -0.2519  0.3171  0.3032
 1574SOL    OH230920   4.618   1.522   0.002 -0.3194 -0.7216 -0.4180
 1574SOL     H130921   4.641   1.535   0.094 -0.2026  0.4690 -0.6172
 1574SOL     H230922   4.700   1.536  -0.045  0.0474 -3.1390 -0.5748
 1575SOL    OH230923   4.803   7.138   6.174 -0.4033 -0.1295  0.2725
 1575SOL     H130924   4.731   7.088   6.137 -0.1822 -0.2780  0.0482
 1575SOL     H230925   4.820   7.207   6.110  0.1406 -0.5355 -0.0097
 1576SOL    OH230926   7.053   2.857   0.978 -0.3224 -0.2131  0.1644
 1576SOL     H130927   7.012   2.780   0.938 -1.4578 -0.1648  1.2114
 1576SOL     H230928   7.130   2.875   0.923 -0.4032 -1.7117 -0.4525
 1577SOL    OH230929   5.545   5.008   0.634  0.6448  0.2713  0.1187
 1577SOL     H130930   5.489   4.931   0.623 -0.0261  0.7139  0.4472
 1577SOL     H230931   5.485   5.081   0.643  1.3252  1.3939 -3.8476
 1578SOL    OH230932   6.418   2.236   8.154 -0.6182  0.2756 -0.3281
 1578SOL     H130933   6.485   2.196   8.099 -0.0116 -0.1356  0.6954
 1578SOL     H230934   6.337   2.189   8.132 -0.7004  1.1512 -1.9700
 1579SOL    OH230935   6.583   7.658   6.156  0.2467  0.1077 -0.1262
 1579SOL     H130936   6.513   7.679   6.218  0.9668  1.3365  0.2785
 1579SOL     H230937   6.584   7.731   6.095  0.6188 -0.3196 -0.6309
 1580SOL    OH230938   1.578   0.869   7.660  0.9518 -0.2483 -0.0014
 1580SOL     H130939   1.496   0.915   7.642  1.1440  0.2120  0.2960
 1580SOL     H230940   1.562   0.780   7.631  0.1014 -0.3341  0.7067
 1581SOL    OH230941   1.294   7.570   0.382 -0.0690  0.0887  0.4781
 1581SOL     H130942   1.312   7.587   0.290  1.4056 -0.2694  0.6882
 1581SOL     H230943   1.380   7.571   0.424 -0.7580  0.5892  1.9092
 1582SOL    OH230944   4.884   6.961   7.006  0.5537 -0.1113 -0.3056
 1582SOL     H130945   4.885   6.867   7.025 -0.0683  0.4086  2.5708
 1582SOL     H230946   4.975   6.982   6.987  0.8063 -1.1698 -0.3133
 1583SOL    OH230947   6.075   3.074   1.084  0.5642 -0.1384 -0.1777
 1583SOL     H130948   6.000   3.089   1.142 -0.4279 -0.1562 -1.4393
 1583SOL     H230949   6.077   2.979   1.073 -1.6501  0.1213 -3.2710
 1584SOL    OH230950   4.406   5.806   6.618  0.2120 -0.3173  0.3171
 1584SOL     H130951   4.472   5.872   6.639  0.8725 -1.3791  1.5843
 1584SOL     H230952   4.351   5.801   6.696 -1.5911  0.7705 -0.8218
 1585SOL    OH230953   2.942   3.232   6.201 -0.4383  0.2486  0.3251
 1585SOL     H130954   3.023   3.189   6.172 -1.1355 -0.6337 -0.3489
 1585SOL     H230955   2.873   3.185   6.155 -1.3707  0.6959  1.2549
 1586SOL    OH230956   3.116   1.560   5.711 -0.1978 -0.0183  0.2127
 1586SOL     H130957   3.210   1.565   5.695 -0.3786  0.3471 -0.7926
 1586SOL     H230958   3.086   1.651   5.709 -0.6905 -0.1875 -0.2605
 1587SOL    OH230959   5.707   6.038   1.545 -0.1856 -0.0861 -0.8935
 1587SOL     H130960   5.673   5.950   1.562 -2.6507  0.6768 -1.6176
 1587SOL     H230961   5.797   6.036   1.577 -0.7007 -2.4097  0.5186
 1588SOL    OH230962   7.517   7.572   1.942 -0.6277  0.2142 -0.1616
 1588SOL     H130963   7.444   7.569   1.880  0.6462  2.0323 -1.7943
 1588SOL     H230964   7.536   7.665   1.953  2.2442 -0.2628 -0.7249
 1589SOL    OH230965   3.565   3.510   0.324  0.3180 -0.3570 -0.2530
 1589SOL     H130966   3.520   3.493   0.241 -1.5280 -1.3894  0.9150
 1589SOL     H230967   3.658   3.510   0.302 -0.1903  0.4804 -2.5075
 1590SOL    OH230968   1.150   4.582   7.766 -0.3360  0.6305 -0.5768
 1590SOL     H130969   1.176   4.509   7.709  1.0258  0.8137 -0.1859
 1590SOL     H230970   1.059   4.599   7.741  0.0026  0.2051 -2.1702
 1591SOL    OH230971   6.655   7.364   5.878 -0.3469  0.4556 -0.1747
 1591SOL     H130972   6.564   7.375   5.851 -0.5423  0.9991  0.6992
 1591SOL     H230973   6.663   7.270   5.897 -0.8918  0.5089  0.3414
 1592SOL    OH230974   7.092   1.701   1.398 -0.4351 -0.3778  0.1328
 1592SOL     H130975   7.040   1.623   1.379 -1.0960  0.0552  0.1364
 1592SOL     H230976   7.038   1.752   1.459  0.8857 -0.9048  1.7939
 1593SOL    OH230977   0.193   1.849   7.181 -0.4522  0.3721  0.5066
 1593SOL     H130978   0.112   1.881   7.219 -1.5998  0.2451 -1.7336
 1593SOL     H230979   0.244   1.928   7.161  0.2173  0.4291  2.3853
 1594SOL    OH230980   0.713   0.709   7.057  0.1862  0.0375 -0.2689
 1594SOL     H130981   0.750   0.623   7.039  0.3721 -0.0503  0.5371
 1594SOL     H230982   0.663   0.698   7.138  0.4899  0.7660  0.0260
 1595SOL    OH230983   5.777   4.548   6.821 -0.2956  0.8757 -0.7361
 1595SOL     H130984   5.843   4.501   6.771  0.7852  1.2271  0.3379
 1595SOL     H230985   5.795   4.524   6.912 -2.0074  0.5158 -0.4782
 1596SOL    OH230986   1.359   5.710   7.397  0.3945  0.6110 -0.2217
 1596SOL     H130987   1.307   5.635   7.424  0.5986  0.9574  1.2212
 1596SOL     H230988   1.295   5.774   7.366 -0.0008  0.8207  1.0100
 1597SOL    OH230989   1.155   3.793   6.981 -0.3353  0.3419  0.5194
 1597SOL     H130990   1.069   3.819   6.950 -0.5529  1.8334  2.3088
 1597SOL     H230991   1.139   3.717   7.037 -0.3776  0.0851  0.1625
 1598SOL    OH230992   0.901   4.165   8.183  0.1073  0.3670 -0.2594
 1598SOL     H130993   0.984   4.208   8.167  1.4959 -2.4368 -0.9468
 1598SOL     H230994   0.879   4.123   8.099 -2.6398  2.0662 -0.4665
 1599SOL    OH230995   3.356   7.907   6.618 -0.3142 -0.6223 -0.3584
 1599SOL     H130996   3.396   7.947   6.695 -0.8691  0.2224 -0.5031
 1599SOL     H230997   3.369   7.971   6.548  0.3322 -1.4565 -1.0067
 1600SOL    OH230998   1.571   2.440   7.534 -0.4097 -0.2104  0.3270
 1600SOL     H130999   1.640   2.403   7.589 -1.2225  0.6488  1.9306
 1600SOL     H231000   1.509   2.478   7.595 -0.9059  1.5114 -1.2118
 1601SOL    OH231001   3.458   3.055   7.835 -0.7706 -0.5373 -0.5658
 1601SOL     H131002   3.485   2.966   7.815 -2.1269 -0.3909 -3.3888
 1601SOL     H231003   3.370   3.046   7.872 -0.2933 -0.4805  0.5713
 1602SOL    OH231004   2.843   2.464   6.406  0.6950  0.0917  0.3544
 1602SOL     H131005   2.847   2.524   6.481 -0.0785  0.9216 -0.2579
 1602SOL     H231006   2.925   2.414   6.411  0.9509  0.5954  1.3710
 1603SOL    OH231007   3.774   5.332   0.544 -0.2187 -0.5571  0.4417
 1603SOL     H131008   3.729   5.391   0.483  0.4527 -0.7406 -0.2377
 1603SOL     H231009   3.709   5.264   0.562 -0.1190 -0.9884 -0.7809
 1604SOL    OH231010   6.580   0.807   0.471  0.0530  0.3115 -0.0985
 1604SOL     H131011   6.564   0.722   0.512 -0.2207  0.7998  0.8038
 1604SOL     H231012   6.568   0.791   0.377  1.4679 -0.9870 -0.0774
 1605SOL    OH231013   7.395   4.189   1.299 -0.2853  0.0810  0.2110
 1605SOL     H131014   7.435   4.105   1.278 -2.0630 -0.5495 -0.7881
 1605SOL     H231015   7.327   4.167   1.363 -1.2326  0.6484 -0.5910
 1606SOL    OH231016   1.549   2.710   7.693  0.0252 -0.2431  0.0462
 1606SOL     H131017   1.616   2.778   7.699 -1.1963  0.8765  1.6626
 1606SOL     H231018   1.591   2.632   7.730  0.2614  0.6294  1.7008
 1607SOL    OH231019   3.018   2.559   7.105  0.6493  0.7408 -0.1650
 1607SOL     H131020   2.942   2.554   7.047  0.9811  1.6226 -0.6802
 1607SOL     H231021   3.029   2.652   7.123  1.6082  0.6215 -0.1011
 1608SOL    OH231022   2.316   2.241   1.308 -0.5054  0.2644  0.3881
 1608SOL     H131023   2.342   2.217   1.219 -0.1427  0.2641  0.4940
 1608SOL     H231024   2.283   2.160   1.346  0.9764 -0.1419  0.8399
 1609SOL    OH231025   5.149   5.632   7.445 -0.5181  0.4605 -0.0583
 1609SOL     H131026   5.155   5.548   7.490  2.8865  1.4726  1.5235
 1609SOL     H231027   5.240   5.658   7.431 -1.5309  3.5547 -1.1997
 1610SOL    OH231028   5.397   2.942   2.302  0.0280  0.3902  0.5472
 1610SOL     H131029   5.473   2.906   2.255  0.0925 -0.8511  1.5703
 1610SOL     H231030   5.345   2.985   2.234  2.2742  2.3902 -0.0002
 1611SOL    OH231031   5.740   4.837   1.170 -0.3209  0.0828  0.5088
 1611SOL     H131032   5.719   4.745   1.187  0.1576 -0.0173  0.5541
 1611SOL     H231033   5.817   4.834   1.113  0.2342  0.4709  1.2379
 1612SOL    OH231034   4.522   2.262   1.524  0.8091  0.0153 -0.0186
 1612SOL     H131035   4.544   2.334   1.583  0.4310 -0.1527  0.3301
 1612SOL     H231036   4.602   2.248   1.472  2.0828 -1.6201  2.2911
 1613SOL    OH231037   4.520   0.062   6.830  0.0845  0.6144  0.4101
 1613SOL     H131038   4.566   0.063   6.914  1.0947 -0.1900 -0.1123
 1613SOL     H231039   4.579   0.014   6.771 -1.3191 -0.2318 -0.3543
 1614SOL    OH231040   3.858   5.598   0.682 -0.2740  0.4106 -0.0860
 1614SOL     H131041   3.897   5.511   0.669 -1.4136 -0.1950  0.4565
 1614SOL     H231042   3.877   5.645   0.602  1.4176  0.0676  0.1002
 1615SOL    OH231043   1.085   3.005   7.622 -0.1074  0.1257 -0.0649
 1615SOL     H131044   1.109   2.984   7.533  0.0813 -1.6683  0.4024
 1615SOL     H231045   0.991   2.988   7.626  0.0998 -0.9448  0.3935
 1616SOL    OH231046   0.824   0.428   7.376 -0.2050 -0.4985 -0.4879
 1616SOL     H131047   0.890   0.358   7.384 -0.8713 -0.9244  1.4273
 1616SOL     H231048   0.753   0.400   7.433 -0.8937  1.3039 -0.4545
 1617SOL    OH231049   7.674   2.678   6.744 -0.1041  0.1575 -0.1456
 1617SOL     H131050   7.611   2.623   6.791  0.1694 -1.0787 -1.2049
 1617SOL     H231051   7.746   2.690   6.806 -0.5455  0.0158  0.3997
 1618SOL    OH231052   1.128   3.304   2.725 -0.4233  0.1331  0.0593
 1618SOL     H131053   1.081   3.380   2.760 -1.3612 -0.4317  0.0624
 1618SOL     H231054   1.181   3.272   2.798 -0.5553  0.3734  0.2605
 1619SOL    OH231055   3.606   5.850   2.345 -0.3875 -0.3573  0.1888
 1619SOL     H131056   3.593   5.768   2.393 -0.5977 -0.1568  0.4710
 1619SOL     H231057   3.552   5.840   2.267 -1.0466 -0.1601  0.6129
 1620SOL    OH231058   0.107   1.178   0.458  0.3932 -0.3460 -0.7056
 1620SOL     H131059   0.081   1.158   0.548 -2.1644  0.7159 -1.1453
 1620SOL     H231060   0.024   1.183   0.410  1.6052  0.8089 -2.7621
 1621SOL    OH231061   4.456   6.571   0.706 -0.5741  0.0284  0.1009
 1621SOL     H131062   4.446   6.477   0.693 -1.3238  0.0287  0.6819
 1621SOL     H231063   4.468   6.606   0.618 -2.8621 -0.2962 -0.3565
 1622SOL    OH231064   5.415   1.096   7.537  0.7629  0.0352  0.3217
 1622SOL     H131065   5.413   1.002   7.554  1.6064  0.2034  1.3691
 1622SOL     H231066   5.370   1.106   7.453  0.7029 -1.3013  0.1880
 1623SOL    OH231067   1.412   0.928   8.247  0.3659 -0.3542 -0.0736
 1623SOL     H131068   1.463   0.952   8.170 -2.1108  2.5648 -0.9339
 1623SOL     H231069   1.440   0.990   8.314  0.5700 -1.0989  0.5177
 1624SOL    OH231070   4.737   7.145   0.483  0.2594  0.6236 -0.4653
 1624SOL     H131071   4.742   7.051   0.465  1.2833  0.3740  1.0006
 1624SOL     H231072   4.728   7.185   0.396 -3.1929 -0.9657 -0.9232
 1625SOL    OH231073   4.466   7.055   6.733  0.1608 -0.1992  0.4515
 1625SOL     H131074   4.407   7.102   6.792  1.7059  2.0150  0.3145
 1625SOL     H231075   4.535   7.119   6.713  0.6832 -1.5437 -2.2367
 1626SOL    OH231076   6.450   5.280   1.452  0.1654 -0.3471 -0.5101
 1626SOL     H131077   6.434   5.202   1.400  0.9492 -1.4927  0.9052
 1626SOL     H231078   6.444   5.353   1.390  0.9618 -1.6498 -2.1530
 1627SOL    OH231079   5.956   6.079   6.896 -0.3179  0.0303  0.3486
 1627SOL     H131080   5.928   6.167   6.922  1.0869  0.8195 -0.7211
 1627SOL     H231081   6.025   6.094   6.832  0.2586 -1.8739  0.4951
 1628SOL    OH231082   2.625   1.123   7.237  0.0751 -0.5440 -0.1166
 1628SOL     H131083   2.628   1.218   7.229  0.3960 -0.6172 -0.9473
 1628SOL     H231084   2.688   1.102   7.306 -0.0538 -0.1488  0.1210
 1629SOL    OH231085   4.986   1.875   0.301  0.4168  0.3656 -0.2841
 1629SOL     H131086   4.928   1.820   0.249 -0.7563  1.6731 -0.3959
 1629SOL     H231087   4.964   1.965   0.275  0.6584  0.9890  1.5825
 1630SOL    OH231088   2.923   3.378   6.835  0.1317  0.3605 -0.0852
 1630SOL     H131089   2.940   3.457   6.885  0.2837  0.6889 -0.6538
 1630SOL     H231090   2.899   3.409   6.747  0.2221 -0.2153 -0.3192
 1631SOL    OH231091   7.735   5.635   6.730 -0.0862 -0.8601  0.0146
 1631SOL     H131092   7.754   5.686   6.651  1.0450 -1.5698 -0.1749
 1631SOL     H231093   7.737   5.700   6.800 -2.0680 -0.0469 -0.6312
 1632SOL    OH231094   7.520   4.988   1.974  0.1531  0.1014 -0.0223
 1632SOL     H131095   7.468   5.068   1.965  0.1788  0.1881  0.5758
 1632SOL     H231096   7.543   4.985   2.067  2.6411  0.9652 -0.5734
 1633SOL    OH231097   3.621   5.577   6.876 -0.7432 -0.1534 -0.2594
 1633SOL     H131098   3.588   5.539   6.957  0.5072  1.1971  0.9093
 1633SOL     H231099   3.544   5.581   6.818 -1.9291  0.0878  1.3089
 1634SOL    OH231100   2.654   4.507   8.003  0.5071  0.2517  0.2243
 1634SOL     H131101   2.615   4.593   7.985 -0.4285 -0.3765 -0.7858
 1634SOL     H231102   2.703   4.486   7.924 -0.0705 -0.5758  0.0773
 1635SOL    OH231103   3.047   7.170   2.096  0.1052  0.1583 -0.0228
 1635SOL     H131104   3.124   7.170   2.152  0.3514  1.7745 -0.3436
 1635SOL     H231105   3.042   7.081   2.061  0.6391 -0.5263  1.6148
 1636SOL    OH231106   6.048   2.132   6.891  0.7017 -0.5387  0.0204
 1636SOL     H131107   6.115   2.169   6.834  2.0642 -1.6374  0.8728
 1636SOL     H231108   6.053   2.184   6.972 -0.3378  0.1793 -0.3659
 1637SOL    OH231109   6.344   6.027   7.009 -0.2100  0.1888  0.4473
 1637SOL     H131110   6.380   6.082   6.940  1.5399 -0.5014  0.7792
 1637SOL     H231111   6.318   5.946   6.965  0.9104 -0.2529  0.5901
 1638SOL    OH231112   3.673   2.015   1.115  0.2097  0.2985  0.0517
 1638SOL     H131113   3.650   2.107   1.105 -1.1985  0.0118  0.6085
 1638SOL     H231114   3.688   1.984   1.026 -0.1793  0.8342 -0.2003
 1639SOL    OH231115   6.002   5.338   0.999 -0.0188 -0.4129  0.6588
 1639SOL     H131116   6.003   5.410   0.937  1.7556 -1.7902 -0.9680
 1639SOL     H231117   5.967   5.263   0.950  3.4201 -2.0652  0.6128
 1640SOL    OH231118   3.753   3.779   6.805 -0.3939  0.0714 -0.6102
 1640SOL     H131119   3.823   3.734   6.758  1.4702  0.6357  1.5710
 1640SOL     H231120   3.747   3.865   6.763 -1.4921 -0.8419 -2.3968
 1641SOL    OH231121   6.559   3.775   7.793 -0.3599 -0.1838  0.2259
 1641SOL     H131122   6.619   3.718   7.841 -0.0016 -0.1956 -0.2368
 1641SOL     H231123   6.552   3.853   7.848 -2.3641 -1.4205  1.8363
 1642SOL    OH231124   4.243   1.652   6.240 -0.0780  0.1492 -0.1578
 1642SOL     H131125   4.238   1.696   6.325 -2.0003 -0.8225  0.2620
 1642SOL     H231126   4.332   1.615   6.237 -0.4698 -1.0601  2.0729
 1643SOL    OH231127   5.098   2.492   0.483 -0.4338  0.1612  0.1941
 1643SOL     H131128   5.158   2.475   0.555  0.7659 -1.9251 -1.2489
 1643SOL     H231129   5.136   2.567   0.438 -0.3465  0.4971  0.8176
 1644SOL    OH231130   7.185   6.931   0.968  0.1976 -0.1336 -0.5410
 1644SOL     H131131   7.201   6.964   0.880 -0.0841  0.5652 -0.3361
 1644SOL     H231132   7.226   6.996   1.025 -0.0665 -0.3167 -0.1417
 1645SOL    OH231133   1.041   6.153   6.432 -0.2678  0.0188 -0.5965
 1645SOL     H131134   1.064   6.101   6.509  1.1633  0.8360 -0.4407
 1645SOL     H231135   0.950   6.132   6.414  0.1050 -2.0858 -0.1762
 1646SOL    OH231136   4.744   1.326   2.472  0.2637  0.4870 -0.2200
 1646SOL     H131137   4.656   1.337   2.507 -0.1408  0.9998 -1.3757
 1646SOL     H231138   4.797   1.390   2.521 -0.0852  0.4616  0.1889
 1647SOL    OH231139   7.150   1.960   7.532 -0.0876  0.0650  0.2332
 1647SOL     H131140   7.163   1.998   7.619  1.4843 -1.5944  0.7540
 1647SOL     H231141   7.056   1.970   7.515 -0.5438 -0.2972  2.4522
 1648SOL    OH231142   5.430   1.145   1.585  0.9069  0.5108 -0.1543
 1648SOL     H131143   5.411   1.088   1.659  0.5252 -0.6061 -1.0912
 1648SOL     H231144   5.511   1.110   1.547  2.4820  2.5738  1.1880
 1649SOL    OH231145   2.199   7.924   7.602 -0.1022  0.6689  0.3306
 1649SOL     H131146   2.281   7.944   7.556 -1.2307  0.9042 -1.6298
 1649SOL     H231147   2.161   8.009   7.622 -1.3718  0.5752 -1.5594
 1650SOL    OH231148   7.548   3.562   0.445  0.6401 -0.2366  0.6951
 1650SOL     H131149   7.563   3.653   0.471 -0.8454  0.1362  0.2435
 1650SOL     H231150   7.481   3.567   0.377  1.0545 -1.6141  0.1831
 1651SOL    OH231151   4.338   7.447   1.152 -1.1174  0.0864 -0.2591
 1651SOL     H131152   4.310   7.421   1.064  1.1623  1.3512 -1.4039
 1651SOL     H231153   4.354   7.365   1.198 -1.8734 -0.5794 -1.1618
 1652SOL    OH231154   0.911   5.709   2.122 -0.1658 -0.2975  0.4261
 1652SOL     H131155   0.968   5.646   2.079  0.7049  0.8005 -0.0493
 1652SOL     H231156   0.970   5.780   2.150 -1.4164  1.2905 -0.8938
 1653SOL    OH231157   2.355   5.310   7.662  0.1387 -0.1637  0.0159
 1653SOL     H131158   2.404   5.227   7.669  0.8034  0.3062  1.1736
 1653SOL     H231159   2.419   5.377   7.689 -1.0968  0.4785  1.4094
 1654SOL    OH231160   4.800   2.739   0.020  0.0005 -0.0005  0.5840
 1654SOL     H131161   4.893   2.746  -0.002 -0.4152  0.6941 -0.9589
 1654SOL     H231162   4.775   2.827   0.047 -0.5838  0.1594 -0.4802
 1655SOL    OH231163   0.236   5.547   7.486  0.0708  0.3181 -0.3471
 1655SOL     H131164   0.257   5.640   7.493  1.0914 -0.0303  1.4629
 1655SOL     H231165   0.321   5.502   7.485 -0.3789 -0.5413 -2.3554
 1656SOL    OH231166   2.161   1.107   6.725  0.1146 -0.0818  0.2121
 1656SOL     H131167   2.068   1.094   6.705 -0.1271  1.4355  0.2782
 1656SOL     H231168   2.163   1.183   6.783  1.4049 -0.0690  0.1706
 1657SOL    OH231169   6.421   4.870   2.814  0.2020  0.0221 -0.2259
 1657SOL     H131170   6.443   4.962   2.801  2.1804 -0.4708 -0.5806
 1657SOL     H231171   6.351   4.871   2.879 -0.4847  1.8159 -0.9557
 1658SOL    OH231172   7.029   1.682   8.072  0.0072  0.1892  0.2011
 1658SOL     H131173   7.000   1.609   8.017  1.3996  0.2791 -0.6900
 1658SOL     H231174   6.984   1.759   8.036 -1.6344 -0.2399  1.2826
 1659SOL    OH231175   0.985   5.830   0.218  0.5893  0.3144 -0.6228
 1659SOL     H131176   1.039   5.810   0.142  2.7020  0.2294  0.8583
 1659SOL     H231177   0.978   5.746   0.265 -0.2699  0.4744 -0.4654
 1660SOL    OH231178   7.919   3.360   7.182  0.0179 -0.1192  0.5681
 1660SOL     H131179   7.909   3.418   7.258  0.2006 -1.3109  1.5259
 1660SOL     H231180   7.941   3.418   7.110  1.6582  0.8789  1.8281
 1661SOL    OH231181   4.359   3.635   1.697 -0.3600 -0.4100 -0.5193
 1661SOL     H131182   4.398   3.605   1.779  1.0013  1.2755 -0.5037
 1661SOL     H231183   4.290   3.695   1.723 -0.1004 -0.0759 -0.5918
 1662SOL    OH231184   5.806   3.070   0.432  0.4639  0.2169 -0.3577
 1662SOL     H131185   5.812   3.105   0.521  0.0924  0.6127 -0.4837
 1662SOL     H231186   5.715   3.043   0.424  0.9433 -1.5323  0.0122
 1663SOL    OH231187   5.651   1.916   2.546  0.2795  0.4411 -0.0871
 1663SOL     H131188   5.580   1.912   2.481  0.9969 -0.1091 -0.8493
 1663SOL     H231189   5.669   2.009   2.556 -0.2784  0.5641 -0.1947
 1664SOL    OH231190   1.139   4.306   8.172 -0.2665 -0.2509  0.3534
 1664SOL     H131191   1.158   4.399   8.157  0.4839 -0.4509  0.0350
 1664SOL     H231192   1.156   4.292   8.265  1.3984 -0.4704  0.0394
 1665SOL    OH231193   7.299   5.788   1.905 -0.7290  0.8106 -0.2696
 1665SOL     H131194   7.356   5.861   1.884  0.9605 -0.3499  0.1846
 1665SOL     H231195   7.354   5.727   1.953 -2.0185 -0.9049 -0.8955
 1666SOL    OH231196   5.394   1.946   2.774 -0.1960  0.1439 -0.0049
 1666SOL     H131197   5.452   1.972   2.845 -0.1279  0.4666 -0.1786
 1666SOL     H231198   5.385   2.025   2.720  0.2101 -0.2683 -0.6687
 1667SOL    OH231199   6.364   2.603   0.477  0.1923 -0.5771  0.5959
 1667SOL     H131200   6.322   2.546   0.412 -1.5543 -1.5608  2.5417
 1667SOL     H231201   6.437   2.552   0.511  2.4636  0.7423 -2.0393
 1668SOL    OH231202   1.190   7.363   2.679 -0.7532 -0.4664  0.1582
 1668SOL     H131203   1.099   7.394   2.675 -0.7883 -0.7130 -1.3113
 1668SOL     H231204   1.236   7.419   2.616 -0.3414 -1.8245 -0.7615
 1669SOL    OH231205   5.220   4.646   6.776  0.7492 -0.3396  0.0931
 1669SOL     H131206   5.183   4.734   6.764 -1.5615 -1.3673 -0.4976
 1669SOL     H231207   5.257   4.648   6.864 -1.8477  0.3576  1.2047
 1670SOL    OH231208   3.418   4.218   0.587  0.3101  0.3399  0.1374
 1670SOL     H131209   3.330   4.184   0.598  0.7074 -0.5217  0.7000
 1670SOL     H231210   3.460   4.158   0.526  1.4337 -0.9855  2.1723
 1671SOL    OH231211   6.223   1.648   1.126  0.1661  0.1323  0.2048
 1671SOL     H131212   6.204   1.574   1.184 -1.3395 -0.0185 -0.4449
 1671SOL     H231213   6.207   1.613   1.038 -0.6856  1.2484 -0.0969
 1672SOL    OH231214   6.837   1.702   2.220 -0.4352 -0.5557 -0.5024
 1672SOL     H131215   6.904   1.634   2.209 -1.7011 -1.4463 -3.1221
 1672SOL     H231216   6.859   1.767   2.153 -2.0481 -0.7519 -1.2395
 1673SOL    OH231217   4.208   4.623   0.403 -0.6380  0.1424  0.2184
 1673SOL     H131218   4.263   4.593   0.331 -1.0730  0.6085 -0.3101
 1673SOL     H231219   4.215   4.554   0.469 -1.8750 -1.2935 -1.0991
 1674SOL    OH231220   5.867   1.144   2.431 -0.0688 -0.2286  0.0670
 1674SOL     H131221   5.924   1.076   2.395 -0.4671 -1.2427  1.3120
 1674SOL     H231222   5.886   1.222   2.378  1.1030 -1.0442 -0.7389
 1675SOL    OH231223   2.273   3.693   0.836 -0.4985 -0.3195  0.4725
 1675SOL     H131224   2.268   3.784   0.865  2.9462 -0.2986  1.2210
 1675SOL     H231225   2.340   3.694   0.767  2.0339 -2.7631  2.7662
 1676SOL    OH231226   0.446   1.083   7.142  0.3714  0.2264 -0.6688
 1676SOL     H131227   0.370   1.040   7.181  0.3543 -0.4931 -1.4783
 1676SOL     H231228   0.516   1.070   7.206 -0.3303  1.4265  0.3600
 1677SOL    OH231229   4.028   3.893   2.386 -0.7292  0.0048 -0.0480
 1677SOL     H131230   4.031   3.814   2.440 -1.5201  0.5121  0.7547
 1677SOL     H231231   4.007   3.861   2.298  1.2120 -0.8905 -0.2161
 1678SOL    OH231232   1.500   6.863   2.600  0.2867 -0.5532 -0.2916
 1678SOL     H131233   1.504   6.767   2.603  0.1123 -0.5774 -0.8164
 1678SOL     H231234   1.591   6.891   2.611  0.7244 -0.8562 -2.7787
 1679SOL    OH231235   5.958   0.177   7.901  0.0197 -0.0252 -0.5336
 1679SOL     H131236   5.874   0.180   7.855 -0.4139  1.0962  0.3140
 1679SOL     H231237   6.023   0.193   7.833 -0.4888 -0.3870 -1.1060
 1680SOL    OH231238   5.001   4.563   1.997 -0.0440  0.7743 -0.0435
 1680SOL     H131239   4.991   4.577   1.903  1.7482 -0.4775 -0.4537
 1680SOL     H231240   5.083   4.514   2.005  0.2383  1.5597  2.2361
 1681SOL    OH231241   5.354   4.650   0.792  0.1650  0.0657 -0.0061
 1681SOL     H131242   5.426   4.693   0.838 -0.0498 -0.2708  0.6588
 1681SOL     H231243   5.375   4.557   0.795 -0.9389 -0.1559  1.3539
 1682SOL    OH231244   5.558   4.074   1.524  0.6182  0.4396 -0.7326
 1682SOL     H131245   5.532   4.125   1.447 -2.5081  0.0159 -0.0172
 1682SOL     H231246   5.534   3.984   1.502  3.1618 -0.2938 -0.7011
 1683SOL    OH231247   3.386   7.802   6.947  0.2794  0.7243 -0.0742
 1683SOL     H131248   3.340   7.845   7.019  0.3347  0.3869  0.1630
 1683SOL     H231249   3.446   7.868   6.913 -0.7381  1.3308 -0.7067
 1684SOL    OH231250   6.855   3.773   0.850  0.1625  0.0292  0.3075
 1684SOL     H131251   6.803   3.704   0.891 -1.1943 -0.4667 -2.1400
 1684SOL     H231252   6.797   3.809   0.783  0.8653  3.5062  1.4562
 1685SOL    OH231253   0.190   0.952   1.346  0.0384 -0.1202  0.5146
 1685SOL     H131254   0.213   0.978   1.436  1.6737 -1.5492  0.5248
 1685SOL     H231255   0.192   1.034   1.297  0.1814  0.5299  1.5659
 1686SOL    OH231256   2.082   7.645   7.446  0.2377 -0.3872  0.2332
 1686SOL     H131257   2.134   7.697   7.384  0.0372 -1.5147 -0.8895
 1686SOL     H231258   2.037   7.580   7.392 -1.4111 -0.2060  1.3412
 1687SOL    OH231259   3.621   5.232   6.242  0.1273 -0.4835 -0.3796
 1687SOL     H131260   3.642   5.288   6.167 -0.9322 -1.2664 -1.2795
 1687SOL     H231261   3.532   5.202   6.224  0.0122 -0.9819  1.0122
 1688SOL    OH231262   6.951   1.600   0.444  0.0149  0.8627  0.3538
 1688SOL     H131263   7.036   1.577   0.406 -0.1837  1.3565 -0.3789
 1688SOL     H231264   6.967   1.599   0.539  0.3507 -0.9559  0.3071
 1689SOL    OH231265   0.313   3.560   1.685  0.2792 -0.2778 -0.2251
 1689SOL     H131266   0.346   3.616   1.754 -0.4343 -0.1376  0.0082
 1689SOL     H231267   0.292   3.620   1.613  0.4458 -0.3544 -0.3379
 1690SOL    OH231268   0.610   5.523   1.444 -0.2552 -0.4425 -0.3793
 1690SOL     H131269   0.662   5.522   1.364 -0.4588  1.0487 -0.5298
 1690SOL     H231270   0.601   5.430   1.467  0.3565 -0.8479 -1.7145
 1691SOL    OH231271   0.504   7.111   6.392 -0.0789  0.0369 -0.0981
 1691SOL     H131272   0.508   7.206   6.381 -0.2068  0.1127  0.5290
 1691SOL     H231273   0.426   7.096   6.445  0.8902 -0.2890  1.2599
 1692SOL    OH231274   3.360   5.173   6.278  0.0339 -0.4241 -0.4161
 1692SOL     H131275   3.272   5.134   6.280 -0.0785 -0.3836 -3.1678
 1692SOL     H231276   3.346   5.263   6.306 -0.5293 -0.8379  0.7046
 1693SOL    OH231277   1.790   1.369   6.659 -0.1874  0.6375  0.3507
 1693SOL     H131278   1.872   1.417   6.671  0.1412  0.0975  0.2706
 1693SOL     H231279   1.723   1.437   6.654  0.1860  1.0544  1.0040
 1694SOL    OH231280   1.888   6.700   6.937 -0.5209 -0.7193  0.2745
 1694SOL     H131281   1.799   6.723   6.913 -0.8536 -1.1659  1.0404
 1694SOL     H231282   1.878   6.644   7.014  0.5984  2.7187  3.0466
 1695SOL    OH231283   6.801   3.220   0.488  0.0427 -0.1538 -0.0268
 1695SOL     H131284   6.833   3.300   0.446  1.2658 -0.8534 -0.4654
 1695SOL     H231285   6.712   3.209   0.455 -0.5696  1.6463  0.9420
 1696SOL    OH231286   6.925   4.095   7.363 -0.3598  0.2055 -0.4509
 1696SOL     H131287   6.838   4.133   7.353 -1.2837 -1.8752 -0.4593
 1696SOL     H231288   6.922   4.047   7.445  0.3321 -0.9984 -1.1084
 1697SOL    OH231289   6.104   4.830   7.614 -0.2983 -0.6166 -0.1066
 1697SOL     H131290   6.158   4.832   7.693 -0.7045 -0.6813  0.1770
 1697SOL     H231291   6.122   4.913   7.570 -0.1003 -0.5621  0.0751
 1698SOL    OH231292   3.087   0.159   8.207 -0.1058  0.3290 -0.0790
 1698SOL     H131293   3.070   0.247   8.240  0.6674  0.7513 -0.8222
 1698SOL     H231294   3.039   0.102   8.267  0.3297  1.1772  1.0880
 1699SOL    OH231295   4.719   2.796   0.550  0.1057 -0.5343  0.0874
 1699SOL     H131296   4.634   2.800   0.593  0.4666  1.1379  0.6887
 1699SOL     H231297   4.722   2.709   0.510 -1.8128 -0.6639  0.1927
 1700SOL    OH231298   3.816   4.960   7.084  0.3038  0.2771  0.1048
 1700SOL     H131299   3.756   4.941   7.013 -0.1038  0.5203  0.3797
 1700SOL     H231300   3.803   4.889   7.147  0.5954  0.1125 -0.0182
 1701SOL    OH231301   6.226   7.534   1.430 -0.1827 -0.2919  0.6483
 1701SOL     H131302   6.276   7.454   1.441  1.3052  0.1346 -2.3925
 1701SOL     H231303   6.162   7.533   1.501  0.8440 -3.3522  1.5948
 1702SOL    OH231304   4.388   2.875   1.477  0.2484 -0.2269 -0.4839
 1702SOL     H131305   4.471   2.874   1.525  0.2455  0.4424 -0.4517
 1702SOL     H231306   4.406   2.933   1.402  0.1255 -0.9125 -1.0474
 1703SOL    OH231307   1.072   4.087   0.336 -0.3941  0.2803 -0.1741
 1703SOL     H131308   1.156   4.093   0.290  0.0694 -0.2737  0.5857
 1703SOL     H231309   1.006   4.100   0.268  0.2805 -0.8710 -1.0548
 1704SOL    OH231310   6.532   0.200   6.530 -0.7972  0.3697 -0.0106
 1704SOL     H131311   6.556   0.135   6.595 -1.1909  2.0381  1.8397
 1704SOL     H231312   6.598   0.269   6.538 -0.1729  0.0795 -2.1875
 1705SOL    OH231313   0.624   6.489   7.255 -0.2730 -0.5179  0.1590
 1705SOL     H131314   0.643   6.426   7.185 -0.6307 -0.3669 -0.0760
 1705SOL     H231315   0.573   6.439   7.319  0.7897 -0.8852  0.7260
 1706SOL    OH231316   1.286   6.681   0.492 -0.4237  0.2699  0.1837
 1706SOL     H131317   1.302   6.768   0.456  1.4494 -0.2700 -0.3670
 1706SOL     H231318   1.368   6.659   0.538 -0.8950 -1.1732  0.3600
 1707SOL    OH231319   6.805   1.214   0.975 -0.5212  0.0615  0.1982
 1707SOL     H131320   6.890   1.239   1.011 -0.2227 -0.6436 -0.0256
 1707SOL     H231321   6.800   1.119   0.987 -0.5578 -0.1412 -1.3379
 1708SOL    OH231322   5.703   0.098   6.997  0.2435  0.1207 -0.0963
 1708SOL     H131323   5.654   0.172   6.961 -0.9227 -0.9090 -0.7154
 1708SOL     H231324   5.664   0.082   7.083 -0.0200 -0.2340 -0.2782
 1709SOL    OH231325   1.444   7.303   6.124 -0.5369 -0.3189 -0.4798
 1709SOL     H131326   1.434   7.398   6.131 -1.4599 -0.5189  1.0624
 1709SOL     H231327   1.443   7.286   6.030  2.0911  1.4362 -0.8811
 1710SOL    OH231328   0.456   5.212   2.207  0.4459 -0.1586 -0.3374
 1710SOL     H131329   0.418   5.217   2.294  1.6716 -0.1100  0.2117
 1710SOL     H231330   0.406   5.143   2.163 -1.4787  1.1708 -0.2739
 1711SOL    OH231331   4.420   0.459   0.765 -0.1829 -0.0230  0.3672
 1711SOL     H131332   4.357   0.437   0.834  0.8879 -2.0459  0.7254
 1711SOL     H231333   4.420   0.383   0.707  2.3056 -0.2932  0.6546
 1712SOL    OH231334   1.081   3.060   1.521 -0.0408  0.1437  0.0575
 1712SOL     H131335   1.025   2.997   1.567  1.1789 -0.5213  0.6583
 1712SOL     H231336   1.095   3.019   1.435  1.1870 -0.6700  0.6378
 1713SOL    OH231337   4.908   3.689   7.874  0.3460  0.6349 -0.0580
 1713SOL     H131338   4.922   3.756   7.807  1.7654 -0.4044 -0.8348
 1713SOL     H231339   4.836   3.635   7.839  0.3224  0.7632 -0.2080
 1714SOL    OH231340   4.555   0.757   6.394 -0.3352 -0.9567 -0.0869
 1714SOL     H131341   4.639   0.767   6.350 -0.2645  0.1017  0.2888
 1714SOL     H231342   4.491   0.790   6.331 -0.2563  0.3402  0.5142
 1715SOL    OH231343   2.569   3.829   7.235 -0.4555 -0.0538 -0.0812
 1715SOL     H131344   2.614   3.746   7.225 -0.7382 -0.1530 -0.5780
 1715SOL     H231345   2.502   3.812   7.301 -1.6562 -0.7128 -1.4404
 1716SOL    OH231346   4.081   1.909   6.783 -0.3353 -0.4383 -0.1500
 1716SOL     H131347   4.154   1.869   6.831  0.3449 -1.2932 -1.8779
 1716SOL     H231348   4.016   1.840   6.777 -2.7498  1.2562  4.2470
 1717SOL    OH231349   0.707   5.633   6.613 -0.5090  0.4787  0.2668
 1717SOL     H131350   0.745   5.717   6.640  1.2761 -0.5177  0.8859
 1717SOL     H231351   0.677   5.592   6.694 -2.1699  0.8502 -0.1193
 1718SOL    OH231352   3.950   0.238   0.392  0.2028 -0.0274  0.1826
 1718SOL     H131353   3.881   0.279   0.444  1.0327  1.3943  0.1950
 1718SOL     H231354   4.018   0.306   0.384  0.0501 -0.1278 -2.8395
 1719SOL    OH231355   0.682   7.474   7.632 -0.0389 -0.0456  0.5961
 1719SOL     H131356   0.591   7.455   7.610  0.1284 -0.3121  0.1242
 1719SOL     H231357   0.731   7.452   7.553  0.4322  0.1360  0.8324
 1720SOL    OH231358   6.113   3.041   1.583  0.0545  0.1371 -0.5183
 1720SOL     H131359   6.176   3.060   1.514 -0.4427  2.7682 -0.2985
 1720SOL     H231360   6.132   3.106   1.652 -0.6103 -1.2860  1.0534
 1721SOL    OH231361   6.155   4.325   0.462  0.5121  0.0858 -0.1537
 1721SOL     H131362   6.158   4.374   0.380 -1.9446  1.2745  0.4282
 1721SOL     H231363   6.194   4.384   0.526  0.8546 -0.1612 -0.1337
 1722SOL    OH231364   4.285   4.258   1.482  0.6733  0.3252  0.0252
 1722SOL     H131365   4.308   4.211   1.402 -0.7200  2.2507 -1.5609
 1722SOL     H231366   4.327   4.343   1.472 -0.5913  1.0390  0.7422
 1723SOL    OH231367   1.342   1.179   1.010 -0.5067 -0.0393 -0.1906
 1723SOL     H131368   1.329   1.270   1.034  2.8297  0.3439  0.3571
 1723SOL     H231369   1.273   1.161   0.947 -2.3681  2.2905  1.1076
 1724SOL    OH231370   0.744   6.619   6.079 -0.6836  1.0365  0.3294
 1724SOL     H131371   0.770   6.551   6.141  1.1718  1.8118  0.4117
 1724SOL     H231372   0.659   6.589   6.045  0.0759 -1.2992  0.4033
 1725SOL    OH231373   7.802   1.617   7.750 -0.2366  0.1356 -0.3739
 1725SOL     H131374   7.746   1.578   7.683  0.6993 -0.9566 -0.5416
 1725SOL     H231375   7.890   1.593   7.724 -0.0122 -3.4499  3.1389
 1726SOL    OH231376   3.747   4.584   7.129 -0.5848 -0.0733 -0.1601
 1726SOL     H131377   3.804   4.611   7.201  0.7562 -0.4437 -1.0632
 1726SOL     H231378   3.661   4.570   7.170  0.4662 -1.5680  1.6154
 1727SOL    OH231379   1.375   7.515   2.078  0.1385 -0.1278 -0.1025
 1727SOL     H131380   1.386   7.440   2.137 -0.2162 -0.3626 -0.3311
 1727SOL     H231381   1.446   7.575   2.102  0.8841 -0.8754 -0.4401
 1728SOL    OH231382   1.491   1.764   6.297  0.5701 -0.5355 -0.1484
 1728SOL     H131383   1.573   1.762   6.247  0.7369 -4.6066  0.1167
 1728SOL     H231384   1.473   1.673   6.317 -2.4671  0.5358  2.4504
 1729SOL    OH231385   3.646   5.173   1.263  0.0623  0.0252  0.0099
 1729SOL     H131386   3.694   5.250   1.231 -2.6661  0.9562 -1.9913
 1729SOL     H231387   3.576   5.160   1.199  0.3723 -4.0738  0.3698
 1730SOL    OH231388   4.768   4.848   7.964 -0.5191  0.2178 -0.5485
 1730SOL     H131389   4.814   4.920   8.008  1.0200 -0.9928 -0.1227
 1730SOL     H231390   4.819   4.833   7.885 -0.9080 -0.3161 -0.6959
 1731SOL    OH231391   0.982   1.997   7.718  0.0971 -0.3216  0.5442
 1731SOL     H131392   1.020   2.076   7.757  1.8678 -0.4153 -0.8896
 1731SOL     H231393   0.888   2.012   7.719  0.3643  1.4746  1.0031
 1732SOL    OH231394   2.164   6.280   6.889  0.3989  0.2251  0.0699
 1732SOL     H131395   2.249   6.259   6.851  0.5085  0.4529  0.1912
 1732SOL     H231396   2.174   6.368   6.925 -0.6748  1.3654 -2.3039
 1733SOL    OH231397   6.340   1.790   0.823 -0.3334  0.0516 -0.3699
 1733SOL     H131398   6.332   1.703   0.783  0.6025 -0.1829 -0.0745
 1733SOL     H231399   6.372   1.773   0.912 -0.3394  0.6815 -0.2450
 1734SOL    OH231400   2.480   6.618   7.563  0.3070 -0.5387  0.1397
 1734SOL     H131401   2.384   6.624   7.564  0.3773  0.9556 -0.2692
 1734SOL     H231402   2.498   6.529   7.534 -0.9549 -0.8510  0.2553
 1735SOL    OH231403   1.297   1.316   6.275 -0.6502  0.8194 -0.2049
 1735SOL     H131404   1.288   1.268   6.357  1.3410  0.4377 -0.1996
 1735SOL     H231405   1.224   1.286   6.221  0.8307 -2.5989 -0.3861
 1736SOL    OH231406   5.993   0.847   7.843  0.4259  0.5185  0.5033
 1736SOL     H131407   5.937   0.924   7.831  0.1709  0.3136  0.3556
 1736SOL     H231408   5.981   0.797   7.762  0.5949  0.3276  0.5979
 1737SOL    OH231409   6.612   6.434   7.808  0.4844  0.1176 -0.5240
 1737SOL     H131410   6.601   6.482   7.726  0.6570 -0.2436 -0.7608
 1737SOL     H231411   6.601   6.342   7.784  0.1325  0.0356 -0.0689
 1738SOL    OH231412   7.019   4.308   1.314  0.1285  0.0368  0.1735
 1738SOL     H131413   6.991   4.397   1.295 -0.5017  0.1384  1.5264
 1738SOL     H231414   6.938   4.258   1.322  0.4867 -0.8415 -1.3353
 1739SOL    OH231415   0.725   3.580   7.795 -0.4291  0.0290 -0.1857
 1739SOL     H131416   0.772   3.663   7.805  1.7015 -1.0630 -0.8551
 1739SOL     H231417   0.735   3.558   7.702 -1.3236 -0.7805 -0.0930
 1740SOL    OH231418   6.063   3.492   8.183 -0.1564 -0.0097 -0.0929
 1740SOL     H131419   5.979   3.452   8.159 -2.3941  4.3295  0.1507
 1740SOL     H231420   6.114   3.491   8.101 -1.6851  0.3404 -1.0589
 1741SOL    OH231421   7.573   1.134   1.357 -0.0204  0.1247  0.4601
 1741SOL     H131422   7.665   1.148   1.338  1.0669 -0.7454  4.5544
 1741SOL     H231423   7.533   1.221   1.350  1.9492  1.2621  2.6657
 1742SOL    OH231424   3.029   0.170   1.858 -0.1715 -0.6651  0.1255
 1742SOL     H131425   2.952   0.123   1.825 -0.7894 -1.0072  2.0217
 1742SOL     H231426   3.098   0.103   1.861 -0.8947 -1.3456  2.2679
 1743SOL    OH231427   4.446   7.930   7.457 -0.5083 -0.0659  0.3599
 1743SOL     H131428   4.462   7.994   7.526 -2.2676  1.8052 -0.8987
 1743SOL     H231429   4.365   7.886   7.482 -0.8575  0.2335 -0.2405
 1744SOL    OH231430   6.084   7.187   8.096 -0.2683  0.5197  0.7023
 1744SOL     H131431   6.027   7.146   8.031 -1.4624  2.4391  0.5217
 1744SOL     H231432   6.133   7.253   8.047  0.3997  0.4997  1.3283
 1745SOL    OH231433   2.485   3.765   1.956 -0.4830 -0.3037  0.1540
 1745SOL     H131434   2.515   3.808   2.036 -2.3402  1.5336 -0.0737
 1745SOL     H231435   2.564   3.730   1.916  0.6992  0.2895  1.9140
 1746SOL    OH231436   4.942   7.406   7.613  0.2416 -0.0843  0.2419
 1746SOL     H131437   4.865   7.425   7.559 -0.1270  0.4479  0.9511
 1746SOL     H231438   4.923   7.447   7.698  1.3587  0.1500  0.3860
 1747SOL    OH231439   5.351   4.098   2.027 -0.4131  0.2705  0.1166
 1747SOL     H131440   5.259   4.114   2.044 -0.5632 -2.4589  2.4588
 1747SOL     H231441   5.352   4.022   1.969  0.3104 -0.8232  1.5078
 1748SOL    OH231442   5.887   4.155   6.825 -0.0796 -0.6473 -0.3622
 1748SOL     H131443   5.883   4.146   6.920  1.8090 -0.0761 -0.2031
 1748SOL     H231444   5.947   4.087   6.796 -2.0293 -1.9859 -1.3642
 1749SOL    OH231445   6.830   5.668   1.702  0.2957  0.1449  0.0943
 1749SOL     H131446   6.879   5.642   1.624  0.2789  1.1449 -0.2550
 1749SOL     H231447   6.785   5.749   1.676  0.7551  0.8047  1.3275
 1750SOL    OH231448   2.629   7.282   1.039 -0.2366 -0.1269  0.5456
 1750SOL     H131449   2.632   7.351   1.105 -0.7073 -0.6742  1.1499
 1750SOL     H231450   2.712   7.235   1.048  0.3129  0.6786 -0.2260
 1751SOL    OH231451   4.662   4.388   2.082 -0.3281 -0.2638  0.2558
 1751SOL     H131452   4.583   4.442   2.095 -0.7635 -0.9764  0.6059
 1751SOL     H231453   4.701   4.381   2.168 -0.0527 -0.1787  0.1381
 1752SOL    OH231454   4.583   2.738   6.004 -0.3368  0.0035  0.6625
 1752SOL     H131455   4.500   2.783   6.021  0.0086  0.2821  1.6026
 1752SOL     H231456   4.558   2.647   5.990 -0.8682  0.2003  0.2920
 1753SOL    OH231457   7.938   2.613   0.500 -0.4592  0.1336  0.0736
 1753SOL     H131458   8.029   2.586   0.511 -0.8736 -1.4094 -0.0548
 1753SOL     H231459   7.887   2.542   0.539 -1.6049  1.1777  0.5292
 1754SOL    OH231460   0.568   2.610   1.289 -0.6383  0.1799 -0.6674
 1754SOL     H131461   0.591   2.596   1.197 -1.3771  0.5634 -0.9201
 1754SOL     H231462   0.476   2.637   1.286 -1.2974 -1.9129  0.3472
 1755SOL    OH231463   2.563   6.478   1.353 -0.0709 -0.7381  0.2427
 1755SOL     H131464   2.604   6.414   1.295 -0.5917 -1.1485  0.3254
 1755SOL     H231465   2.499   6.428   1.404 -0.8001 -0.0816 -0.0039
 1756SOL    OH231466   3.121   1.108   7.548 -0.1707  0.6254 -0.0331
 1756SOL     H131467   3.209   1.145   7.554 -0.0675  0.2658  0.8224
 1756SOL     H231468   3.092   1.100   7.639 -0.0215 -1.8162 -0.1619
 1757SOL    OH231469   7.900   5.541   1.744 -0.0807 -0.0073  0.1521
 1757SOL     H131470   7.938   5.552   1.831  0.0026  2.2605 -0.1438
 1757SOL     H231471   7.812   5.577   1.752 -0.6436 -1.2639 -0.3022
 1758SOL    OH231472   7.230   5.587   1.418 -0.1581 -0.2752 -0.4759
 1758SOL     H131473   7.177   5.519   1.376  0.1890 -0.3980 -0.7198
 1758SOL     H231474   7.167   5.641   1.467 -0.5660 -0.1360 -1.1518
 1759SOL    OH231475   0.814   6.509   0.814 -0.1813 -0.4990  0.0747
 1759SOL     H131476   0.908   6.522   0.826 -0.6620  2.0283  1.5763
 1759SOL     H231477   0.794   6.431   0.864  1.0783 -0.9280 -0.0656
 1760SOL    OH231478   0.836   0.016   0.892  0.1246  0.0066  0.5816
 1760SOL     H131479   0.788   0.093   0.921  2.7317  1.4511  1.1800
 1760SOL     H231480   0.798  -0.057   0.942  0.3129  1.5028  2.9434
 1761SOL    OH231481   4.575   5.743   0.620  0.2258  0.9026 -0.5729
 1761SOL     H131482   4.578   5.725   0.526  0.2213  0.9392 -0.5799
 1761SOL     H231483   4.516   5.818   0.629  0.1509  0.8390 -0.5323
 1762SOL    OH231484   0.173   7.605   1.261  0.4246 -0.3429 -0.6730
 1762SOL     H131485   0.159   7.699   1.253  0.5455  0.0091  2.5315
 1762SOL     H231486   0.084   7.569   1.270  0.4343 -0.4316 -0.9282
 1763SOL    OH231487   0.043   7.114   1.294 -0.1732  0.1979  0.0722
 1763SOL     H131488   0.114   7.151   1.241 -1.2562  0.2282 -1.4229
 1763SOL     H231489   0.019   7.184   1.354  0.1702  0.6658 -0.3281
 1764SOL    OH231490   4.842   7.569   1.513  0.0838  0.0553 -0.1572
 1764SOL     H131491   4.898   7.629   1.561 -1.8449  1.7024  0.0683
 1764SOL     H231492   4.873   7.574   1.423 -0.4417  1.8604 -0.2564
 1765SOL    OH231493   1.939   2.305   8.162  0.2828 -0.1235  1.0814
 1765SOL     H131494   1.868   2.245   8.139  0.6336  0.3274 -1.2979
 1765SOL     H231495   1.899   2.369   8.219 -0.9638 -0.5326  0.6872
 1766SOL    OH231496   7.542   2.806   8.078 -0.0602 -0.1861  0.0672
 1766SOL     H131497   7.586   2.795   8.163  0.2292  0.1195 -0.0444
 1766SOL     H231498   7.449   2.806   8.100  0.0123 -0.1322  0.3860
 1767SOL    OH231499   6.041   6.456   7.607  0.7394  0.0525 -0.0550
 1767SOL     H131500   5.952   6.429   7.585  1.1603  1.0334 -3.2292
 1767SOL     H231501   6.093   6.375   7.601  0.3975 -0.1560 -0.2214
 1768SOL    OH231502   7.632   5.513   1.802 -0.1622  0.4338  0.3498
 1768SOL     H131503   7.589   5.493   1.718 -2.1406  1.4649  1.0619
 1768SOL     H231504   7.571   5.480   1.868  1.8900 -1.3505  1.4156
 1769SOL    OH231505   5.740   0.329   2.491  0.8576 -0.6778  0.2911
 1769SOL     H131506   5.658   0.291   2.523  0.1073  1.7516  1.3402
 1769SOL     H231507   5.732   0.423   2.508  4.1112 -0.4641  0.9605
 1770SOL    OH231508   2.622   7.496   0.150 -0.3809 -0.5881  0.8784
 1770SOL     H131509   2.584   7.430   0.207  1.1439 -1.5434  0.8467
 1770SOL     H231510   2.630   7.452   0.065  2.2438 -0.9979  1.2821
 1771SOL    OH231511   5.290   1.129   0.183  0.4306  0.6818 -0.7562
 1771SOL     H131512   5.249   1.126   0.269  1.3328 -1.6984 -0.3481
 1771SOL     H231513   5.377   1.090   0.196  0.7265  0.6333 -2.6565
 1772SOL    OH231514   4.973   7.623   1.275 -0.3124 -0.4081 -0.1607
 1772SOL     H131515   5.065   7.652   1.279 -0.2194 -0.7700  0.3134
 1772SOL     H231516   4.965   7.581   1.189 -0.0479 -0.3306 -0.2238
 1773SOL    OH231517   3.426   3.282   0.415  0.4638 -0.1367 -0.4093
 1773SOL     H131518   3.472   3.217   0.361 -0.4326  0.6117 -2.1160
 1773SOL     H231519   3.468   3.365   0.393 -0.3064  0.2570 -0.4016
 1774SOL    OH231520   1.378   6.334   7.605  0.3000 -0.7951  0.3213
 1774SOL     H131521   1.317   6.271   7.567  0.9832 -0.3757 -1.5395
 1774SOL     H231522   1.463   6.310   7.569  0.5225  1.3645 -0.7114
 1775SOL    OH231523   0.170   2.935   6.644 -0.0391 -0.1165 -0.2222
 1775SOL     H131524   0.172   2.867   6.711 -3.5948 -1.2523 -1.1571
 1775SOL     H231525   0.214   3.010   6.684 -0.2110 -1.4631  2.5693
 1776SOL    OH231526   0.290   7.568   1.502 -0.1111 -0.6691 -0.2109
 1776SOL     H131527   0.231   7.579   1.427 -1.5119 -1.8487  0.6777
 1776SOL     H231528   0.274   7.644   1.557 -0.1689 -0.5488 -0.3959
 1777SOL    OH231529   6.600   2.476   0.555 -0.3942  0.1659 -0.2380
 1777SOL     H131530   6.591   2.527   0.636 -0.7207 -0.5976  0.2116
 1777SOL     H231531   6.618   2.387   0.585  0.2883  0.0378 -1.0218
 1778SOL    OH231532   4.803   5.018   0.100 -0.1727 -1.1339  0.2282
 1778SOL     H131533   4.736   4.997   0.165  0.9397 -2.0418  1.1202
 1778SOL     H231534   4.841   5.101   0.130 -2.2357  0.4415 -1.3949
 1779SOL    OH231535   4.257   0.766   7.853 -0.4194  0.0518  0.0659
 1779SOL     H131536   4.284   0.858   7.858 -0.2772 -0.0010  0.2406
 1779SOL     H231537   4.170   0.764   7.892 -1.3313  0.4963 -1.8540
 1780SOL    OH231538   7.067   0.922   6.731 -0.1979 -0.0511 -0.5547
 1780SOL     H131539   7.067   0.833   6.696 -0.2163 -0.6894  1.0423
 1780SOL     H231540   7.087   0.912   6.824  0.5739  1.6842 -0.5153
 1781SOL    OH231541   3.759   6.109   6.236  0.4549 -0.0113  0.3483
 1781SOL     H131542   3.754   6.199   6.269  1.4865  0.4428 -0.6797
 1781SOL     H231543   3.728   6.115   6.145 -0.3035 -0.8526  0.5472
 1782SOL    OH231544   7.915   7.045   7.966 -0.6964 -0.5085 -0.3758
 1782SOL     H131545   7.967   7.098   7.907  1.2972 -1.3280  0.5949
 1782SOL     H231546   7.854   6.997   7.909  0.1680 -0.1538 -1.6032
 1783SOL    OH231547   2.280   5.570   0.345 -0.5632 -0.6602  0.0831
 1783SOL     H131548   2.342   5.525   0.402 -2.2675 -1.5657  1.2653
 1783SOL     H231549   2.205   5.510   0.339 -0.5576 -0.4591 -2.8700
 1784SOL    OH231550   1.409   2.641   0.833  0.4127 -0.2239  0.4165
 1784SOL     H131551   1.487   2.588   0.815  0.3919 -0.2973  0.5396
 1784SOL     H231552   1.336   2.581   0.821  0.4575 -0.5975  1.9378
 1785SOL    OH231553   4.282   5.478   2.063  0.2250  0.5765  0.3205
 1785SOL     H131554   4.310   5.498   1.974 -0.7017 -0.3267 -0.1848
 1785SOL     H231555   4.195   5.517   2.070 -0.9914 -1.9498 -0.1941
 1786SOL    OH231556   2.810   0.573   0.787  0.0307  0.1596 -0.1268
 1786SOL     H131557   2.885   0.520   0.762 -0.5409  0.3236 -2.3043
 1786SOL     H231558   2.848   0.651   0.829  0.9645 -0.7616  0.7669
 1787SOL    OH231559   6.460   4.534   7.596  0.8179 -0.3000  0.2778
 1787SOL     H131560   6.525   4.530   7.666  0.6793 -1.2142  0.3545
 1787SOL     H231561   6.428   4.624   7.599  0.0433 -0.6233  2.0843
 1788SOL    OH231562   4.583   0.164   0.327 -0.6735  0.2754  0.4087
 1788SOL     H131563   4.511   0.125   0.276  0.0967 -0.9296  0.2364
 1788SOL     H231564   4.623   0.228   0.267 -1.8285  1.2353  0.6345
 1789SOL    OH231565   0.082   6.314   7.670  0.0518 -0.4572  0.9985
 1789SOL     H131566   0.155   6.330   7.730 -0.1597 -2.7538  1.9184
 1789SOL     H231567   0.013   6.373   7.700  0.5082 -0.4259  2.0086
 1790SOL    OH231568   4.755   5.019   1.387  0.3663 -0.6657  0.6619
 1790SOL     H131569   4.708   4.942   1.419  2.5188 -2.3580 -0.1174
 1790SOL     H231570   4.696   5.058   1.322 -0.7817 -1.6296  1.1195
 1791SOL    OH231571   1.563   6.887   0.485 -0.6998 -0.5398  0.1166
 1791SOL     H131572   1.517   6.936   0.416 -1.0778 -1.7346 -0.4904
 1791SOL     H231573   1.616   6.953   0.530 -0.0353  0.1636 -1.6668
 1792SOL    OH231574   2.667   2.758   7.959 -0.1976 -0.2848 -0.2369
 1792SOL     H131575   2.640   2.818   8.028 -0.1276  0.4682 -0.8528
 1792SOL     H231576   2.585   2.718   7.929 -0.4735  0.8316 -1.0331
 1793SOL    OH231577   4.544   7.774   7.056 -0.0731 -0.1823  0.0157
 1793SOL     H131578   4.538   7.763   7.151  1.3172 -0.1907  0.1173
 1793SOL     H231579   4.606   7.846   7.044  0.2352 -0.5841 -0.8917
 1794SOL    OH231580   2.701   6.989   6.513  0.2724  0.1211 -0.4687
 1794SOL     H131581   2.729   7.020   6.427 -0.4076  2.2518  0.0487
 1794SOL     H231582   2.627   7.046   6.536 -0.6615 -1.5430  0.7811
 1795SOL    OH231583   3.561   6.818   7.190  0.0723  0.0248  0.6563
 1795SOL     H131584   3.593   6.889   7.136  1.0199 -0.6604  0.2925
 1795SOL     H231585   3.530   6.860   7.270  0.8899  0.8097  0.5610
 1796SOL    OH231586   5.574   6.026   0.149  0.7933 -0.0705  0.0841
 1796SOL     H131587   5.508   6.070   0.201  1.0362 -0.5366  0.7883
 1796SOL     H231588   5.657   6.065   0.176  1.1100 -1.6192  1.4188
 1797SOL    OH231589   4.113   3.153   2.088  0.1223  0.0999 -0.1336
 1797SOL     H131590   4.107   3.077   2.031 -0.4329 -0.2132  0.3371
 1797SOL     H231591   4.033   3.151   2.139 -0.7299  2.0172 -1.3515
 1798SOL    OH231592   1.725   3.106   8.285 -0.2545  0.1742  0.9972
 1798SOL     H131593   1.638   3.124   8.250 -0.8716 -1.6284  1.5729
 1798SOL     H231594   1.756   3.030   8.236  0.3548 -0.1338  1.8480
 1799SOL    OH231595   7.535   7.552   2.425  0.1251  0.0272 -0.4385
 1799SOL     H131596   7.466   7.487   2.438 -0.1616  0.5499  0.6895
 1799SOL     H231597   7.496   7.634   2.455  0.9643  0.4777 -0.5742
 1800SOL    OH231598   4.304   5.935   8.253  0.2753  0.4821 -0.8302
 1800SOL     H131599   4.322   5.985   8.174  0.3327  0.7591 -0.6439
 1800SOL     H231600   4.209   5.936   8.261  0.2075 -0.4009 -1.4424
 1801SOL    OH231601   2.738   1.514   6.479 -0.0611 -0.0976  0.0690
 1801SOL     H131602   2.661   1.477   6.435 -0.4456  0.2133  0.4644
 1801SOL     H231603   2.751   1.457   6.555 -0.1084  0.0401  0.1821
 1802SOL    OH231604   2.027   5.416   0.189  0.5525  0.1501 -0.0799
 1802SOL     H131605   2.095   5.411   0.122  0.4298 -1.8848 -0.0654
 1802SOL     H231606   2.061   5.364   0.262 -0.4325  0.2181  0.4409
 1803SOL    OH231607   0.128   6.836   1.232 -0.2615 -0.3134  0.2151
 1803SOL     H131608   0.161   6.926   1.242  0.0779 -0.3633 -0.4127
 1803SOL     H231609   0.066   6.841   1.159  1.3747 -0.9982 -1.2597
 1804SOL    OH231610   5.230   0.888   8.111 -0.1592  0.4866 -0.5164
 1804SOL     H131611   5.293   0.949   8.072 -0.7021  1.2948 -0.1368
 1804SOL     H231612   5.163   0.944   8.151 -0.5815 -0.3546 -0.0244
 1805SOL    OH231613   6.879   2.890   0.515  0.2474  0.2434 -0.4817
 1805SOL     H131614   6.917   2.926   0.435  2.9615 -0.2129  0.5263
 1805SOL     H231615   6.920   2.940   0.586 -1.5894  0.1820  0.6686
 1806SOL    OH231616   5.372   7.469   6.744 -0.4118 -0.5409  0.8699
 1806SOL     H131617   5.393   7.558   6.715 -1.2612 -1.3034 -2.3290
 1806SOL     H231618   5.419   7.459   6.827 -0.2600  2.8518  1.2804
 1807SOL    OH231619   5.821   2.403   6.311 -0.2647 -0.0731 -0.0010
 1807SOL     H131620   5.755   2.338   6.288  0.0784 -0.2244 -0.5646
 1807SOL     H231621   5.797   2.481   6.261 -0.1772 -0.0432  0.0030
 1808SOL    OH231622   2.090   0.176   7.392 -0.3835 -0.2705 -0.1531
 1808SOL     H131623   2.101   0.218   7.478 -2.4882  2.2533 -1.0545
 1808SOL     H231624   2.020   0.113   7.406 -1.1883  0.6087 -0.1344
 1809SOL    OH231625   3.313   3.920   7.276 -0.0000  0.0988 -0.5505
 1809SOL     H131626   3.230   3.886   7.242 -0.1442 -0.2732  0.1649
 1809SOL     H231627   3.339   3.987   7.213 -0.9699  0.3912 -0.6436
 1810SOL    OH231628   4.485   3.413   7.028  0.0270  0.0661 -0.3813
 1810SOL     H131629   4.494   3.331   7.077 -0.9314  0.0393 -0.2342
 1810SOL     H231630   4.535   3.477   7.078 -1.9294  0.3154  1.3190
 1811SOL    OH231631   4.107   6.026   6.842 -0.0431  1.0075  0.4477
 1811SOL     H131632   4.070   6.002   6.927 -0.2731  1.4718  0.4764
 1811SOL     H231633   4.166   5.953   6.821 -1.7792 -0.2779 -0.1135
 1812SOL    OH231634   5.567   2.833   2.118 -0.7758 -0.2619 -0.1274
 1812SOL     H131635   5.614   2.750   2.125 -2.1142 -1.1028 -0.8451
 1812SOL     H231636   5.526   2.829   2.032 -1.9195  0.5651  0.3693
 1813SOL    OH231637   3.154   3.980   6.496  0.3071  0.0612 -0.2916
 1813SOL     H131638   3.196   4.039   6.433 -0.5371  1.3791  0.3723
 1813SOL     H231639   3.129   4.036   6.569  0.0426 -1.2275  0.6165
 1814SOL    OH231640   4.375   3.159   1.957  0.2961  0.5455  0.1536
 1814SOL     H131641   4.447   3.142   2.017 -0.3932 -0.1843  0.7828
 1814SOL     H231642   4.304   3.190   2.013 -0.0265  0.8355 -0.4080
 1815SOL    OH231643   3.610   0.781   6.980  0.0105 -0.8783 -0.3192
 1815SOL     H131644   3.667   0.766   6.904 -0.6647 -1.3070 -0.7450
 1815SOL     H231645   3.553   0.853   6.953  1.8479  1.1166  0.9509
 1816SOL    OH231646   6.515   0.897   2.385  0.1297  0.1078 -0.5742
 1816SOL     H131647   6.422   0.914   2.400  0.4595  1.1822  0.3419
 1816SOL     H231648   6.532   0.815   2.432  0.2178  1.3066  1.5696
 1817SOL    OH231649   1.497   2.073   7.961  0.7235 -0.0155 -0.6198
 1817SOL     H131650   1.496   2.047   7.869  2.0627 -2.9026  0.1127
 1817SOL     H231651   1.590   2.076   7.984  0.3815  0.1075  0.8059
 1818SOL    OH231652   6.791   0.048   8.068  0.3381  0.4085  0.0364
 1818SOL     H131653   6.760  -0.024   8.124  1.3405 -0.0869 -0.0320
 1818SOL     H231654   6.735   0.043   7.990 -1.2264  1.2555  1.0824
 1819SOL    OH231655   4.943   6.479   6.492  0.1840 -0.0713  0.0073
 1819SOL     H131656   4.902   6.488   6.577 -1.4029  0.4485 -0.7984
 1819SOL     H231657   4.983   6.392   6.493 -1.1856 -0.7093  0.6963
 1820SOL    OH231658   1.118   3.205   0.556  1.1639  0.0817 -0.7233
 1820SOL     H131659   1.150   3.144   0.623  1.9383  1.2889  0.0119
 1820SOL     H231660   1.191   3.217   0.496  1.1471  0.6106 -0.6395
 1821SOL    OH231661   3.617   7.225   0.828 -0.5342 -0.1032  0.7440
 1821SOL     H131662   3.572   7.298   0.785 -0.4025  0.0053  0.7885
 1821SOL     H231663   3.584   7.227   0.918  0.5853  0.8482  1.1590
 1822SOL    OH231664   0.200   3.949   2.250  0.2602  0.0273  0.1579
 1822SOL     H131665   0.133   4.017   2.250  1.0943  0.8529  0.6148
 1822SOL     H231666   0.211   3.927   2.157 -1.6106 -1.0987  0.1733
 1823SOL    OH231667   7.814   7.871   2.080 -0.0796 -0.3222 -0.5771
 1823SOL     H131668   7.885   7.808   2.070  0.2720  0.0022 -0.1143
 1823SOL     H231669   7.790   7.866   2.172  1.5240  1.9135 -0.0163
 1824SOL    OH231670   0.923   0.109   1.276  0.0615 -0.2314 -0.1280
 1824SOL     H131671   0.872   0.135   1.352 -0.7738  0.8306 -1.0290
 1824SOL     H231672   1.003   0.070   1.312  0.3262  1.5666  1.2797
 1825SOL    OH231673   7.182   5.233   2.126  0.5256  0.2612  0.1954
 1825SOL     H131674   7.230   5.312   2.151  0.7603  0.8328 -2.0019
 1825SOL     H231675   7.239   5.187   2.066 -0.1433 -0.9633  0.4665
 1826SOL    OH231676   6.765   4.499   0.393 -0.2605  0.1168  0.1568
 1826SOL     H131677   6.816   4.428   0.433 -1.2002 -1.1615 -0.8693
 1826SOL     H231678   6.823   4.533   0.324 -0.5904 -1.0002 -0.6781
 1827SOL    OH231679   6.297   5.761   8.050 -0.7293 -0.1574 -0.2400
 1827SOL     H131680   6.360   5.821   8.011  1.8767 -1.6732  1.5418
 1827SOL     H231681   6.306   5.680   8.000 -0.1918 -0.8503  0.9606
 1828SOL    OH231682   0.900   4.747   2.251 -0.5640  0.1211  0.0248
 1828SOL     H131683   0.867   4.732   2.340 -1.1911  2.4147  0.2088
 1828SOL     H231684   0.994   4.736   2.258 -0.6646 -0.2407  0.8527
 1829SOL    OH231685   3.979   7.655   2.172  0.0258 -0.2999  0.3691
 1829SOL     H131686   4.024   7.575   2.197 -0.1652 -0.1593  1.1653
 1829SOL     H231687   3.970   7.649   2.076  1.2857 -0.5490  0.2651
 1830SOL    OH231688   7.067   6.593   2.381 -0.6203 -0.1501 -0.5125
 1830SOL     H131689   7.152   6.582   2.423 -0.9263 -0.7904 -0.0447
 1830SOL     H231690   7.049   6.687   2.385 -1.7422 -0.4614  2.9593
 1831SOL    OH231691   6.864   2.498   6.870 -0.2283 -0.2717 -0.0270
 1831SOL     H131692   6.892   2.584   6.900 -0.6536 -0.1027 -0.1146
 1831SOL     H231693   6.775   2.488   6.905 -0.1956 -0.6571 -0.0495
 1832SOL    OH231694   2.051   6.339   0.455 -0.6404 -0.1958  0.0670
 1832SOL     H131695   2.121   6.395   0.422 -1.2147  1.3080  1.3161
 1832SOL     H231696   2.076   6.251   0.427 -0.2417  0.7679 -2.8180
 1833SOL    OH231697   0.750   5.934   2.092  0.7096  0.1682  0.3325
 1833SOL     H131698   0.785   5.846   2.099  0.5340 -0.0984 -1.8065
 1833SOL     H231699   0.675   5.926   2.032  0.0153  1.5794  0.9622
 1834SOL    OH231700   2.365   7.524   7.269 -0.4210 -0.0300  0.3011
 1834SOL     H131701   2.360   7.596   7.331  0.2072 -0.5679  0.9826
 1834SOL     H231702   2.316   7.453   7.310 -1.2032  0.0621 -0.4562
 1835SOL    OH231703   7.706   2.570   1.371 -0.5764  0.2687 -0.0151
 1835SOL     H131704   7.720   2.526   1.287 -1.5549  0.1705 -0.1402
 1835SOL     H231705   7.746   2.656   1.361  0.6016 -0.2826 -0.0686
 1836SOL    OH231706   7.528   7.532   0.642 -0.1565 -0.0174 -0.4410
 1836SOL     H131707   7.620   7.518   0.619 -0.1826 -2.5662  0.8452
 1836SOL     H231708   7.491   7.576   0.565  2.1969  1.3768 -0.8238
 1837SOL    OH231709   1.431   2.901   8.126  0.7582  0.4451  0.6015
 1837SOL     H131710   1.359   2.852   8.165  0.0276  0.4928 -0.6367
 1837SOL     H231711   1.412   2.993   8.145  0.6355  0.4390  0.5064
 1838SOL    OH231712   3.414   0.254   6.557  0.2423  0.6099  0.2446
 1838SOL     H131713   3.458   0.198   6.621 -0.1795 -1.3691 -1.1255
 1838SOL     H231714   3.483   0.314   6.527  0.9859  0.1527  1.0158
 1839SOL    OH231715   0.723   6.054   6.704 -0.5392 -0.2720  0.0159
 1839SOL     H131716   0.747   6.145   6.685  0.2060 -0.4826 -0.0593
 1839SOL     H231717   0.730   6.047   6.799  0.6408 -0.5902 -0.0847
 1840SOL    OH231718   7.722   7.854   6.413  0.0490 -0.2384  0.3219
 1840SOL     H131719   7.816   7.854   6.431  0.2803 -0.4125 -0.8069
 1840SOL     H231720   7.692   7.767   6.440 -0.1325  0.4273  2.3212
 1841SOL    OH231721   6.538   0.778   1.681  0.2903  0.6772  0.2777
 1841SOL     H131722   6.554   0.865   1.719  0.4376  0.6277  0.3281
 1841SOL     H231723   6.546   0.792   1.587  0.2061  0.7411  0.2797
 1842SOL    OH231724   1.610   7.867   7.566  0.3925 -0.0424  0.0626
 1842SOL     H131725   1.567   7.786   7.591 -1.1007  0.4942 -0.6968
 1842SOL     H231726   1.588   7.929   7.635  0.4106  0.0747 -0.0348
 1843SOL    OH231727   4.900   6.789   7.292 -0.2187 -0.1623  0.3959
 1843SOL     H131728   4.807   6.803   7.311 -0.1333  0.7318  0.1809
 1843SOL     H231729   4.946   6.822   7.369  0.0183  1.4288 -0.3978
 1844SOL    OH231730   6.265   4.228   1.571 -0.4510 -0.0323  0.2888
 1844SOL     H131731   6.245   4.145   1.613 -0.5357  0.5441  1.4037
 1844SOL     H231732   6.323   4.205   1.499 -3.0898 -1.4642 -1.4821
 1845SOL    OH231733   6.187   3.557   1.086  0.0008  0.4154 -0.0483
 1845SOL     H131734   6.183   3.564   0.991  0.9131 -0.1493 -0.1335
 1845SOL     H231735   6.185   3.462   1.103  0.8777  0.4818  0.4409
 1846SOL    OH231736   7.268   6.442   2.103 -0.0281 -0.2436  0.0737
 1846SOL     H131737   7.258   6.357   2.146 -1.5368 -1.1203 -1.8548
 1846SOL     H231738   7.187   6.452   2.052  0.7336  1.7059 -0.8224
 1847SOL    OH231739   0.369   0.716   7.075 -0.3045 -0.6866  0.2417
 1847SOL     H131740   0.439   0.690   7.015  1.0862  0.9736  1.0628
 1847SOL     H231741   0.406   0.701   7.162 -1.3575 -0.7345  0.6862
 1848SOL    OH231742   1.296   3.058   1.733  0.0580  0.0017 -0.0066
 1848SOL     H131743   1.225   3.103   1.687  0.2317  0.4750  0.1805
 1848SOL     H231744   1.295   2.969   1.698  0.5655  0.5087 -1.3613
 1849SOL    OH231745   6.207   4.428   0.214  0.8181 -0.2126 -0.1902
 1849SOL     H131746   6.210   4.508   0.162 -2.0602  0.3231  0.3994
 1849SOL     H231747   6.191   4.358   0.149  2.7989 -0.2895 -0.6359
 1850SOL    OH231748   2.964   7.094   6.130 -0.3329  0.5373 -0.2242
 1850SOL     H131749   2.907   7.064   6.201  1.7359  0.0436  1.2744
 1850SOL     H231750   2.934   7.183   6.112 -0.4148  0.9425  1.7915
 1851SOL    OH231751   5.878   7.555   0.625 -0.2136 -0.3677 -0.2043
 1851SOL     H131752   5.913   7.486   0.680  1.3353  1.4710  1.1932
 1851SOL     H231753   5.955   7.593   0.581 -0.9190  0.9815 -0.3265
 1852SOL    OH231754   0.363   6.157   1.256  0.0352 -0.3431 -0.2300
 1852SOL     H131755   0.457   6.179   1.259  0.1212 -0.6183 -0.7469
 1852SOL     H231756   0.348   6.131   1.165 -0.5625 -0.2269 -0.1645
 1853SOL    OH231757   6.757   2.394   1.196 -0.3602  0.0029 -0.7347
 1853SOL     H131758   6.767   2.306   1.158  0.7667 -1.4631  2.6852
 1853SOL     H231759   6.846   2.418   1.224 -1.4165 -0.0405  2.9376
 1854SOL    OH231760   1.901   7.631   0.715  0.3398  0.7522  0.0746
 1854SOL     H131761   1.880   7.569   0.785  0.6942  2.1574  1.4551
 1854SOL     H231762   1.908   7.577   0.636  1.8126 -1.1479  1.4487
 1855SOL    OH231763   7.881   2.298   7.151  0.0032  0.3070 -0.4263
 1855SOL     H131764   7.939   2.337   7.216  0.3031  1.4982 -1.3943
 1855SOL     H231765   7.816   2.366   7.132 -1.2876 -0.7493  0.1056
 1856SOL    OH231766   6.628   7.551   0.498 -0.2692 -0.2299 -0.2286
 1856SOL     H131767   6.712   7.505   0.501  0.0129  0.2969 -0.0328
 1856SOL     H231768   6.584   7.517   0.420 -0.2504 -1.1601  0.1618
 1857SOL    OH231769   7.302   2.482   0.991  0.6046 -0.4405  0.0727
 1857SOL     H131770   7.227   2.437   1.030  1.5623 -0.7082  1.6495
 1857SOL     H231771   7.267   2.568   0.964 -0.7291 -1.3079 -1.0617
 1858SOL    OH231772   6.493   4.489   6.977 -0.2632 -0.0724  0.5498
 1858SOL     H131773   6.516   4.582   6.977  0.3248 -0.2203 -0.3610
 1858SOL     H231774   6.537   4.453   7.054 -0.1356  0.3094  0.6539
 1859SOL    OH231775   4.271   6.516   0.363  0.8511  0.1845  0.0091
 1859SOL     H131776   4.191   6.465   0.348  0.1536  1.0512  0.6521
 1859SOL     H231777   4.314   6.520   0.277 -1.2574  2.1061 -1.0073
 1860SOL    OH231778   4.510   7.549   0.485 -0.1858 -0.0767 -0.8796
 1860SOL     H131779   4.431   7.602   0.476 -0.5554 -0.6689 -1.1045
 1860SOL     H231780   4.579   7.613   0.504 -0.9858  0.2833  0.9146
 1861SOL    OH231781   6.282   1.966   6.155  0.1373 -0.2022 -0.3802
 1861SOL     H131782   6.254   1.910   6.228 -0.3907  0.5011 -0.0422
 1861SOL     H231783   6.238   2.050   6.171 -2.1818 -0.8615 -2.9814
 1862SOL    OH231784   2.670   4.105   7.365 -0.3431 -0.8009 -0.1401
 1862SOL     H131785   2.622   4.059   7.296 -0.4231 -1.0786  0.0992
 1862SOL     H231786   2.602   4.133   7.426 -0.1975 -1.2736  0.2469
 1863SOL    OH231787   6.006   0.715   7.052 -0.0616  0.2004 -0.1687
 1863SOL     H131788   6.097   0.734   7.072 -0.0478 -0.8479  0.8087
 1863SOL     H231789   5.975   0.663   7.126 -1.2128 -0.1668 -0.8885
 1864SOL    OH231790   6.199   0.487   6.704  0.0055 -0.1233  0.2134
 1864SOL     H131791   6.240   0.573   6.718 -0.3399  0.1134 -0.2414
 1864SOL     H231792   6.266   0.424   6.732  0.0642  0.3031  1.0600
 1865SOL    OH231793   7.595   6.521   7.144  0.0459 -0.0782 -0.7810
 1865SOL     H131794   7.653   6.536   7.069 -0.2384 -0.7752 -1.1489
 1865SOL     H231795   7.613   6.593   7.203  2.5617 -1.2032 -0.0977
 1866SOL    OH231796   4.546   3.080   7.700  0.0789 -0.0100 -0.1053
 1866SOL     H131797   4.633   3.040   7.689  1.2847  2.1490  1.2459
 1866SOL     H231798   4.538   3.093   7.794 -1.1115  1.0976 -0.3529
 1867SOL    OH231799   1.922   0.891   0.839  0.0452  0.5288 -0.0003
 1867SOL     H131800   1.974   0.811   0.830  0.5336  0.9265 -0.7178
 1867SOL     H231801   1.975   0.947   0.895 -0.3334  0.3294  0.5678
 1868SOL    OH231802   7.466   2.009   0.474 -0.1347 -0.2365 -0.0815
 1868SOL     H131803   7.528   1.948   0.432  0.0825 -0.6894  0.8662
 1868SOL     H231804   7.483   1.998   0.568 -2.2699 -1.0311  0.2415
 1869SOL    OH231805   4.335   3.707   0.745 -0.5197 -0.0948  0.0165
 1869SOL     H131806   4.346   3.627   0.797 -0.2581  0.7020  1.1935
 1869SOL     H231807   4.245   3.703   0.715 -0.2696 -1.2547 -0.6448
 1870SOL    OH231808   0.431   7.883   8.170 -0.3340  0.2829 -0.5383
 1870SOL     H131809   0.467   7.963   8.208 -1.9778  1.6767 -1.8511
 1870SOL     H231810   0.474   7.812   8.218  1.2928  1.9445  0.5015
 1871SOL    OH231811   2.944   1.199   7.366 -0.1232 -0.1834  0.5542
 1871SOL     H131812   2.954   1.294   7.353  0.8059  0.0062  2.4097
 1871SOL     H231813   3.005   1.179   7.437  0.9549 -2.4852 -0.9558
 1872SOL    OH231814   4.651   2.758   7.689 -0.4492 -0.5066  0.3403
 1872SOL     H131815   4.650   2.845   7.729 -1.6264 -1.4042  2.3417
 1872SOL     H231816   4.743   2.740   7.671 -0.2459  1.3596 -0.5999
 1873SOL    OH231817   1.833   6.945   0.846  0.5407  0.2780 -0.0507
 1873SOL     H131818   1.798   6.867   0.803 -0.3851 -0.3116  1.7011
 1873SOL     H231819   1.901   6.911   0.905 -1.1235  0.5181  2.0939
 1874SOL    OH231820   7.477   0.775   2.198  0.2833 -0.0111  0.0299
 1874SOL     H131821   7.395   0.738   2.231 -0.2168 -1.2560 -2.4791
 1874SOL     H231822   7.472   0.868   2.219 -1.8023 -0.0611 -0.1263
 1875SOL    OH231823   1.158   4.646   6.289  0.2455  0.4903 -0.3960
 1875SOL     H131824   1.126   4.723   6.242  0.5965  0.8163 -0.1073
 1875SOL     H231825   1.250   4.638   6.263 -0.1210 -0.5623 -1.3701
 1876SOL    OH231826   7.627   1.180   0.457 -0.2008 -0.5812  0.0785
 1876SOL     H131827   7.547   1.232   0.447  0.4024  0.4716  0.5811
 1876SOL     H231828   7.606   1.118   0.527 -0.9807 -1.1223 -0.6232
 1877SOL    OH231829   5.106   4.894   6.814  0.3838 -0.1415 -0.4416
 1877SOL     H131830   5.015   4.898   6.842 -0.3791 -0.9933 -2.6782
 1877SOL     H231831   5.157   4.913   6.893 -1.7689  2.5109  0.3564
 1878SOL    OH231832   1.341   3.783   1.669 -0.1926 -0.0527  0.0572
 1878SOL     H131833   1.298   3.864   1.698 -1.4435 -0.6190 -0.1861
 1878SOL     H231834   1.363   3.737   1.750  0.6122  0.5600  0.1997
 1879SOL    OH231835   2.518   1.729   1.964 -0.5184 -0.0913 -0.8247
 1879SOL     H131836   2.459   1.665   1.924 -0.6109 -0.5968  0.1166
 1879SOL     H231837   2.525   1.701   2.055 -0.7767  1.4074 -0.3418
 1880SOL    OH231838   3.567   1.045   0.431  0.2183 -0.0074 -0.4515
 1880SOL     H131839   3.529   0.991   0.500  1.2149 -0.1334  0.0023
 1880SOL     H231840   3.613   0.984   0.374  1.7555  0.3858  0.3269
 1881SOL    OH231841   4.825   7.274   1.369  0.0420 -0.1622 -0.2726
 1881SOL     H131842   4.878   7.335   1.317  0.4514 -1.0187 -0.8700
 1881SOL     H231843   4.884   7.244   1.438 -0.9451  2.1257  1.6353
 1882SOL    OH231844   4.560   3.129   1.773 -0.3650 -0.5909 -0.4435
 1882SOL     H131845   4.591   3.200   1.829 -1.0447 -0.8956  0.3242
 1882SOL     H231846   4.472   3.110   1.804 -0.4866 -1.2344 -1.1663
 1883SOL    OH231847   0.320   5.010   0.591  0.5739  0.0452 -0.1213
 1883SOL     H131848   0.310   4.948   0.663 -1.9129  0.3239 -0.1656
 1883SOL     H231849   0.272   5.088   0.621  0.1128  0.4057 -1.7647
 1884SOL    OH231850   5.871   5.203   0.109 -0.3578 -0.1502  0.3881
 1884SOL     H131851   5.831   5.119   0.134  0.4347 -0.9609 -0.9693
 1884SOL     H231852   5.911   5.236   0.189 -0.7510 -1.0353  0.9559
 1885SOL    OH231853   7.283   1.777   0.438  0.5531  0.4424 -0.1053
 1885SOL     H131854   7.299   1.798   0.530  1.7124 -0.5763 -0.0590
 1885SOL     H231855   7.199   1.818   0.418  0.4685  0.9782  1.3063
 1886SOL    OH231856   0.671   4.432   0.844  0.4746  0.7076  0.3762
 1886SOL     H131857   0.723   4.512   0.843  1.4256  0.0899 -1.3198
 1886SOL     H231858   0.734   4.362   0.860 -0.1519  0.1525  0.4523
 1887SOL    OH231859   6.424   1.590   2.229 -0.7157  0.1053  0.1890
 1887SOL     H131860   6.415   1.545   2.313 -2.5404 -0.0975 -0.0887
 1887SOL     H231861   6.367   1.666   2.237  1.2960  1.6589  0.1505
 1888SOL    OH231862   2.413   2.344   7.849 -0.7090 -1.0094  0.3069
 1888SOL     H131863   2.430   2.393   7.930  0.0731  0.6004 -0.8193
 1888SOL     H231864   2.471   2.268   7.855  1.1074  0.3211  0.1951
 1889SOL    OH231865   7.488   1.313   8.128  0.3681 -0.1200  0.1376
 1889SOL     H131866   7.503   1.222   8.102 -2.1089  0.1907 -2.6490
 1889SOL     H231867   7.496   1.363   8.047  1.6007  2.1738  1.6151
 1890SOL    OH231868   5.650   0.953   7.318  0.1830 -0.3742 -0.4407
 1890SOL     H131869   5.664   0.924   7.408 -0.7413 -1.4414 -0.6284
 1890SOL     H231870   5.555   0.956   7.309  0.2744  0.4833 -1.1440
 1891SOL    OH231871   1.069   2.698   0.824 -0.6642 -0.7750  0.3516
 1891SOL     H131872   1.082   2.604   0.807  1.2372 -0.5623  0.5936
 1891SOL     H231873   1.109   2.713   0.909  0.4312  0.5693 -0.3860
 1892SOL    OH231874   4.152   6.348   7.474  0.0457  0.0055 -0.3987
 1892SOL     H131875   4.147   6.428   7.422 -2.4341  0.6193  0.6696
 1892SOL     H231876   4.094   6.286   7.428  1.1120 -0.8196 -0.6390
 1893SOL    OH231877   7.112   0.675   0.695  0.1151  0.6390 -0.2417
 1893SOL     H131878   7.102   0.632   0.780  1.1627  1.6245  0.3961
 1893SOL     H231879   7.027   0.664   0.652 -0.4229  0.1413  0.9461
 1894SOL    OH231880   2.125   1.526   0.834 -0.3300 -0.2883  0.3365
 1894SOL     H131881   2.066   1.461   0.870  0.6869 -1.4538 -0.0507
 1894SOL     H231882   2.142   1.496   0.744  0.2064  0.4601  0.1778
 1895SOL    OH231883   7.289   3.264   0.605 -0.1350 -0.6516  0.1360
 1895SOL     H131884   7.229   3.196   0.575 -0.0196 -0.1464 -1.2781
 1895SOL     H231885   7.232   3.337   0.630 -0.2424 -1.1520  1.3587
 1896SOL    OH231886   0.212   1.352   6.636 -0.0369  0.5209  0.4699
 1896SOL     H131887   0.173   1.385   6.717 -0.8152  1.3062 -0.2127
 1896SOL     H231888   0.205   1.425   6.574  2.5023  0.6593  0.3004
 1897SOL    OH231889   5.466   4.240   1.322  0.2820 -0.5042 -0.1682
 1897SOL     H131890   5.373   4.242   1.344 -0.0953  0.4576 -1.7272
 1897SOL     H231891   5.469   4.273   1.232  2.1578 -0.2600 -0.0232
 1898SOL    OH231892   7.943   4.966   7.107 -0.2752 -0.1062  0.2207
 1898SOL     H131893   7.881   4.972   7.179 -0.2018 -1.3719  0.4025
 1898SOL     H231894   8.029   4.981   7.147 -0.1887 -1.2782  0.4904
 1899SOL    OH231895   5.030   1.264   1.526 -0.1141 -0.0104 -0.2987
 1899SOL     H131896   5.000   1.274   1.616  1.4890  0.2000  0.2261
 1899SOL     H231897   4.955   1.226   1.480 -1.2519  0.7180  0.9123
 1900SOL    OH231898   3.353   6.883   2.120 -0.5691  0.3370  0.3677
 1900SOL     H131899   3.401   6.874   2.038 -2.0817  1.0301 -0.6141
 1900SOL     H231900   3.290   6.811   2.119 -1.0965  0.7942  0.5733
 1901SOL    OH231901   3.244   0.311   7.686 -0.1322 -0.5535 -0.0183
 1901SOL     H131902   3.317   0.305   7.624 -0.6074  3.0623 -1.0452
 1901SOL     H231903   3.188   0.237   7.664  1.8695 -1.8177 -1.0110
 1902SOL    OH231904   6.257   4.625   7.858  0.6687 -0.4946 -0.0409
 1902SOL     H131905   6.206   4.559   7.811  0.8037 -0.8304  0.2731
 1902SOL     H231906   6.333   4.576   7.891  1.1055 -0.0356 -0.3647
 1903SOL    OH231907   4.934   2.165   0.306 -0.3937  0.5134 -0.1758
 1903SOL     H131908   4.853   2.169   0.357  0.5481 -0.6987  1.4513
 1903SOL     H231909   4.994   2.223   0.352  0.4833 -0.6426  0.1589
 1904SOL    OH231910   5.761   1.775   7.664 -0.1353  0.1144 -0.0243
 1904SOL     H131911   5.846   1.737   7.687  0.4245  1.1626 -0.3022
 1904SOL     H231912   5.726   1.716   7.597  0.1461 -0.6067  0.4660
 1905SOL    OH231913   5.277   2.463   6.723 -0.1620 -0.1222  0.1223
 1905SOL     H131914   5.259   2.412   6.644 -1.2497 -1.7727  1.4018
 1905SOL     H231915   5.192   2.478   6.762  0.4634 -0.4219  1.6432
 1906SOL    OH231916   4.616   1.741   0.985  0.1879  0.4011 -0.2233
 1906SOL     H131917   4.544   1.704   1.036  0.0911 -0.4767 -0.9958
 1906SOL     H231918   4.694   1.726   1.039 -0.1265  0.8626  0.3640
 1907SOL    OH231919   1.599   5.538   0.562  0.2207  0.5986 -0.4381
 1907SOL     H131920   1.664   5.470   0.579 -0.7465 -0.7023 -1.7694
 1907SOL     H231921   1.543   5.537   0.639  0.1259 -0.2278 -0.5166
 1908SOL    OH231922   5.667   5.297   7.779 -0.2965  0.5554  0.3794
 1908SOL     H131923   5.725   5.224   7.801  1.8348  1.8743 -0.7609
 1908SOL     H231924   5.715   5.375   7.807 -1.3960  1.6959 -0.8593
 1909SOL    OH231925   0.580   6.588   7.992  0.0695 -0.1324  0.4670
 1909SOL     H131926   0.585   6.606   8.086 -1.1070  0.8419  0.3537
 1909SOL     H231927   0.598   6.672   7.950 -2.2461  0.1115 -0.1219
 1910SOL    OH231928   2.878   3.884   7.935  0.2316  0.1690 -0.8242
 1910SOL     H131929   2.846   3.803   7.895  0.7329 -0.8463  0.7812
 1910SOL     H231930   2.801   3.920   7.980  0.4421 -0.3733 -0.0188
 1911SOL    OH231931   2.340   7.709   0.232 -0.1428 -0.0820  0.4342
 1911SOL     H131932   2.394   7.788   0.240  1.3548 -0.9193 -1.1083
 1911SOL     H231933   2.376   7.649   0.297  0.2318 -0.3300 -0.0001
 1912SOL    OH231934   6.811   3.021   1.636  0.1346 -0.2314 -0.2615
 1912SOL     H131935   6.781   3.041   1.547  1.2629  0.6494 -0.4546
 1912SOL     H231936   6.767   3.086   1.691  2.7192  1.9528 -0.7164
 1913SOL    OH231937   1.222   6.224   7.389 -0.7620  0.0426 -0.2196
 1913SOL     H131938   1.143   6.272   7.412 -1.2520 -1.1927  0.7685
 1913SOL     H231939   1.190   6.140   7.357  0.1780 -1.2260  2.0322
 1914SOL    OH231940   4.181   0.419   0.538  0.2072 -0.7029  0.6842
 1914SOL     H131941   4.181   0.489   0.604  0.4970  1.3405 -1.4226
 1914SOL     H231942   4.273   0.392   0.531  0.3494 -0.1475  0.3481
 1915SOL    OH231943   3.878   7.178   0.788  0.0348 -0.6743  0.0913
 1915SOL     H131944   3.784   7.191   0.799 -0.1087 -1.6571  0.0581
 1915SOL     H231945   3.918   7.234   0.855 -0.5295  0.5456 -0.5656
 1916SOL    OH231946   2.423   4.495   6.187 -0.4143 -0.0298 -0.1936
 1916SOL     H131947   2.484   4.513   6.116  0.4310 -1.3007  0.1859
 1916SOL     H231948   2.469   4.524   6.266  0.2660 -2.1326  0.2328
 1917SOL    OH231949   2.868   4.069   0.303 -0.4146 -0.2199 -0.1322
 1917SOL     H131950   2.833   4.068   0.393 -1.0209 -0.1961 -0.3642
 1917SOL     H231951   2.891   4.160   0.288 -0.8236 -0.1249 -0.1930
 1918SOL    OH231952   6.741   6.068   0.953 -0.6013  0.0450 -0.1994
 1918SOL     H131953   6.821   6.055   1.003  0.6400  0.9041 -1.8898
 1918SOL     H231954   6.706   5.980   0.939 -0.6020 -0.2422  1.5576
 1919SOL    OH231955   5.407   0.859   0.448 -0.2004  0.3955  0.5644
 1919SOL     H131956   5.393   0.786   0.386  0.9358 -0.3104  1.1251
 1919SOL     H231957   5.345   0.842   0.519 -0.0882  0.0856  0.5904
 1920SOL    OH231958   0.985   6.340   7.456 -0.3185  0.4742  0.2488
 1920SOL     H131959   0.996   6.395   7.378  1.9860 -0.6101 -0.2460
 1920SOL     H231960   1.032   6.387   7.525 -1.3154  0.8282  0.6961
 1921SOL    OH231961   2.630   4.887   0.710 -0.2517 -0.3744 -0.4370
 1921SOL     H131962   2.679   4.960   0.672 -1.2581  0.4710 -0.1199
 1921SOL     H231963   2.692   4.814   0.709  1.0072  0.6700 -0.0692
 1922SOL    OH231964   3.252   4.763   6.861  0.3910  0.0727  0.0160
 1922SOL     H131965   3.303   4.825   6.808  1.1815 -0.5603  0.0224
 1922SOL     H231966   3.318   4.715   6.911 -0.2118 -0.8700 -0.0921
 1923SOL    OH231967   0.971   1.210   1.143  0.1576 -0.4708  0.3120
 1923SOL     H131968   1.002   1.202   1.053  0.5880 -1.9421  0.5780
 1923SOL     H231969   0.965   1.305   1.158 -0.2644 -0.2119 -1.3710
 1924SOL    OH231970   6.292   5.505   6.753 -0.1924 -0.1498  0.0232
 1924SOL     H131971   6.348   5.468   6.686 -2.3253  0.1224 -1.9811
 1924SOL     H231972   6.203   5.497   6.717 -1.5031 -0.9879  3.2603
 1925SOL    OH231973   5.026   3.814   7.561 -0.3598 -0.4149 -0.4089
 1925SOL     H131974   5.088   3.771   7.620 -1.3935  0.1533  1.1112
 1925SOL     H231975   5.081   3.861   7.498  0.7572 -0.9329  0.1743
 1926SOL    OH231976   0.106   5.052   7.829  0.2351  0.1070 -0.1786
 1926SOL     H131977   0.192   5.091   7.809  0.0448 -0.0506 -1.3568
 1926SOL     H231978   0.090   4.993   7.756 -1.9265  1.8500 -1.1388
 1927SOL    OH231979   7.655   2.594   7.342  0.2405 -0.4762 -0.2225
 1927SOL     H131980   7.704   2.582   7.423  0.7086 -0.3682 -0.4833
 1927SOL     H231981   7.563   2.587   7.367  0.3125  1.2284  0.6107
 1928SOL    OH231982   6.812   7.034   7.914 -0.2455  0.1023  0.5405
 1928SOL     H131983   6.888   7.082   7.946 -0.2632 -1.4932  3.1728
 1928SOL     H231984   6.753   7.030   7.989 -1.3605 -1.7210 -0.3814
 1929SOL    OH231985   4.822   0.780   0.417  0.5895  0.3129  0.7044
 1929SOL     H131986   4.835   0.702   0.470 -2.7956  0.6486  2.1649
 1929SOL     H231987   4.802   0.849   0.481 -0.4389  1.4276 -0.7890
 1930SOL    OH231988   5.259   5.479   6.749 -0.7200 -0.3283  0.1848
 1930SOL     H131989   5.270   5.466   6.655  1.1852 -2.9161  0.7344
 1930SOL     H231990   5.314   5.555   6.770 -0.0863 -0.5952 -0.5426
 1931SOL    OH231991   7.350   7.360   8.033 -0.1657  0.1509 -0.4342
 1931SOL     H131992   7.313   7.288   8.085  1.2794  0.9060  1.7230
 1931SOL     H231993   7.434   7.327   8.002  0.0483  0.5401 -0.2779
 1932SOL    OH231994   1.256   3.605   2.129 -0.7484  0.2357 -0.0453
 1932SOL     H131995   1.244   3.517   2.166  1.0061 -0.3305 -0.7634
 1932SOL     H231996   1.216   3.663   2.193 -2.6519 -1.1308  0.0622
 1933SOL    OH231997   2.586   4.204   0.354  0.1705  0.4788  0.4706
 1933SOL     H131998   2.546   4.290   0.336 -1.1315  0.1131  1.4679
 1933SOL     H231999   2.535   4.142   0.302  0.4867  0.2045  0.4874
 1934SOL    OH232000   4.725   3.427   7.384 -0.1291 -0.4060  0.3162
 1934SOL     H132001   4.796   3.362   7.373  0.1974  0.2204 -1.4254
 1934SOL     H232002   4.769   3.504   7.419  0.3796  0.5798 -2.4319
 1935SOL    OH232003   4.988   3.759   0.956  0.1733 -0.1847  0.1498
 1935SOL     H132004   5.038   3.691   1.001 -0.8096 -1.7251 -1.0387
 1935SOL     H232005   5.028   3.764   0.869 -0.0489  0.4460  0.0806
 1936SOL    OH232006   6.112   6.295   0.897 -0.2793 -0.2733 -0.1372
 1936SOL     H132007   6.128   6.207   0.931 -0.6858  0.3553  1.7277
 1936SOL     H232008   6.049   6.282   0.826 -0.8118 -1.4238  0.5286
 1937SOL    OH232009   1.051   4.215   7.422 -0.0479  0.0615  0.4326
 1937SOL     H132010   0.980   4.154   7.400  1.9401 -2.1622  0.0216
 1937SOL     H232011   1.058   4.273   7.345 -0.0038 -1.0701 -0.4248
 1938SOL    OH232012   2.533   5.529   0.734 -0.2170 -0.1959  0.5155
 1938SOL     H132013   2.576   5.473   0.798  1.5259  2.3158  1.6267
 1938SOL     H232014   2.591   5.529   0.658  0.4594  1.0867  1.0118
 1939SOL    OH232015   3.807   7.301   8.091 -0.0507  0.2808 -0.5441
 1939SOL     H132016   3.834   7.214   8.121  1.4083  0.7362 -0.5005
 1939SOL     H232017   3.712   7.298   8.095  0.0218 -0.6653  1.3634
 1940SOL    OH232018   1.553   3.510   1.729  0.0645 -0.4157  0.0130
 1940SOL     H132019   1.512   3.524   1.814  0.9535 -1.2391  0.5935
 1940SOL     H232020   1.522   3.424   1.700  0.8796 -0.7687  0.1696
 1941SOL    OH232021   2.473   7.015   1.332 -0.3857 -0.1812  0.0767
 1941SOL     H132022   2.508   7.099   1.361 -1.2631 -0.4556  1.9505
 1941SOL     H232023   2.403   7.038   1.271 -1.5441  0.4778  1.6464
 1942SOL    OH232024   7.021   6.089   8.119  0.5410  0.5533  0.0033
 1942SOL     H132025   7.075   6.060   8.192 -0.0043  1.8330  0.9208
 1942SOL     H232026   6.932   6.066   8.145  0.3177  1.2559 -0.1283
 1943SOL    OH232027   2.774   7.186   0.385 -0.0283  0.1320  0.0861
 1943SOL     H132028   2.693   7.226   0.353  2.2035  2.0490 -3.5310
 1943SOL     H232029   2.763   7.093   0.370 -1.3946  0.4223 -0.8181
 1944SOL    OH232030   4.419   1.245   1.443 -0.4116  0.4452  0.0813
 1944SOL     H132031   4.373   1.329   1.439  2.3566  2.0475  0.4673
 1944SOL     H232032   4.454   1.241   1.532  1.0058 -0.2689 -0.4928
 1945SOL    OH232033   4.935   6.876   2.504  0.1072 -0.2962 -0.6531
 1945SOL     H132034   4.841   6.873   2.484  0.3000 -1.1835 -1.4786
 1945SOL     H232035   4.958   6.969   2.498 -1.3878  0.3759  2.8680
 1946SOL    OH232036   1.603   6.805   7.295  0.0747 -0.1423  0.2429
 1946SOL     H132037   1.631   6.869   7.229  0.2645 -0.0665  0.3981
 1946SOL     H232038   1.672   6.739   7.295 -0.2785 -0.5184 -0.1488
 1947SOL    OH232039   6.373   3.766   7.299  0.1290 -0.2999 -0.2942
 1947SOL     H132040   6.361   3.675   7.273  0.4311 -0.4639  0.1281
 1947SOL     H232041   6.465   3.786   7.278  0.7070 -0.7917  1.6784
 1948SOL    OH232042  -0.010   7.731   0.591  0.7594  0.0611  0.4644
 1948SOL     H132043   0.058   7.696   0.649 -0.9357 -2.0286  1.2908
 1948SOL     H232044   0.019   7.707   0.503  2.5861  1.8884  0.5459
 1949SOL    OH232045   4.051   6.783   7.458  0.4886 -0.1375 -0.1473
 1949SOL     H132046   4.060   6.867   7.414 -1.8541  1.0062  1.4374
 1949SOL     H232047   3.987   6.799   7.528  0.1501 -3.1806  0.3210
 1950SOL    OH232048   0.647   3.231   6.922  0.0521 -0.3680 -0.3461
 1950SOL     H132049   0.711   3.295   6.954 -1.5213  1.1341 -0.1652
 1950SOL     H232050   0.633   3.171   6.995 -0.4806  0.6649  0.4051
 1951SOL    OH232051   6.151   1.081   7.485 -0.0650 -0.3533 -0.1005
 1951SOL     H132052   6.137   1.174   7.504 -0.2446 -0.2558 -0.7095
 1951SOL     H232053   6.065   1.048   7.459  0.0509 -0.6333 -0.1377
 1952SOL    OH232054   3.680   4.185   0.708 -0.0691 -0.2377 -0.2416
 1952SOL     H132055   3.604   4.222   0.664  0.5023  1.8835  0.4928
 1952SOL     H232056   3.648   4.105   0.750 -2.1740  1.2739  1.0827
 1953SOL    OH232057   6.005   3.708   2.728  0.0157 -0.5056 -0.1709
 1953SOL     H132058   5.966   3.695   2.641  0.3411 -1.4306 -0.1818
 1953SOL     H232059   6.018   3.803   2.734 -1.2768 -0.2872 -0.5784
 1954SOL    OH232060   3.025   6.776   2.336 -0.4656  0.5685 -0.1335
 1954SOL     H132061   3.032   6.768   2.241  1.2859  4.1721 -0.4171
 1954SOL     H232062   3.107   6.740   2.369 -0.0018  1.5153 -0.2127
 1955SOL    OH232063   2.451   1.050   0.444  0.4513 -0.8462 -0.0978
 1955SOL     H132064   2.441   0.989   0.371  0.2068 -1.4435  0.4236
 1955SOL     H232065   2.363   1.055   0.483  0.5874 -0.5634  0.1714
 1956SOL    OH232066   4.641   3.834   7.601  0.5395 -0.0160  0.6086
 1956SOL     H132067   4.627   3.880   7.683  0.2170 -1.0682  1.1624
 1956SOL     H232068   4.554   3.831   7.560  0.7228  0.6167  0.1654
 1957SOL    OH232069   3.102   0.828   1.530 -0.0986  0.5650 -0.0668
 1957SOL     H132070   3.190   0.863   1.519  1.3598 -2.8482  0.0879
 1957SOL     H232071   3.093   0.818   1.625 -0.9601  1.5572 -0.0329
 1958SOL    OH232072   0.131   6.634   1.828  0.5571  0.5766  0.0100
 1958SOL     H132073   0.073   6.639   1.904  2.1775  0.4193  1.2968
 1958SOL     H232074   0.164   6.544   1.830  0.4673  0.5236 -0.9896
 1959SOL    OH232075   3.772   2.393   7.024  0.3669  0.1324 -0.3785
 1959SOL     H132076   3.822   2.383   7.105  1.8944  0.4233 -1.2557
 1959SOL     H232077   3.819   2.340   6.960 -1.4554 -0.9816 -0.8241
 1960SOL    OH232078   2.319   5.006   0.189  0.2034  0.0585  0.1732
 1960SOL     H132079   2.296   5.091   0.153 -0.7659 -0.1751  0.2238
 1960SOL     H232080   2.300   4.943   0.119  3.6242  0.1402 -0.8968
 1961SOL    OH232081   3.337   0.497   0.411  0.1002  0.1975  0.5832
 1961SOL     H132082   3.271   0.503   0.342  1.6659  0.7498 -0.9036
 1961SOL     H232083   3.313   0.418   0.460 -1.0311 -0.2138 -0.5960
 1962SOL    OH232084   3.919   6.215   7.387  0.2872  0.0349  0.0086
 1962SOL     H132085   3.836   6.182   7.351  1.0209 -2.9543  0.9669
 1962SOL     H232086   3.911   6.203   7.482  1.1702  1.3164  0.2642
 1963SOL    OH232087   6.963   7.171   6.732 -0.4134 -0.4472  0.2824
 1963SOL     H132088   6.938   7.084   6.762 -0.6247 -0.0623  1.2407
 1963SOL     H232089   7.059   7.169   6.733 -0.4165 -0.5421  0.6960
 1964SOL    OH232090   2.594   6.015   0.332 -0.2151  0.1022 -0.2985
 1964SOL     H132091   2.687   6.007   0.353  0.0576  2.8876 -0.2502
 1964SOL     H232092   2.551   5.955   0.392  1.4477 -0.0887  0.7396
 1965SOL    OH232093   4.352   1.752   0.659 -0.4799  0.0365  0.5570
 1965SOL     H132094   4.366   1.793   0.744  0.5653  2.6095 -0.8162
 1965SOL     H232095   4.288   1.808   0.615  0.5876 -0.0661 -1.1671
 1966SOL    OH232096   2.892   4.830   1.332  0.6099  0.3723 -0.3926
 1966SOL     H132097   2.859   4.840   1.422 -1.2567  1.1969 -1.1387
 1966SOL     H232098   2.841   4.757   1.296  0.1673  1.1102 -1.2916
 1967SOL    OH232099   1.807   5.426   6.630  0.2976  0.6706  0.1136
 1967SOL     H132100   1.801   5.364   6.703  1.0558  1.4306  0.8211
 1967SOL     H232101   1.894   5.413   6.594 -0.9613 -1.5444 -2.3333
 1968SOL    OH232102   0.092   5.751   1.426  0.4401 -0.1101 -0.2622
 1968SOL     H132103   0.019   5.744   1.487 -0.0085 -0.4108 -0.8324
 1968SOL     H232104   0.055   5.794   1.349  0.6710 -0.9937 -0.8665
 1969SOL    OH232105   5.379   3.142   7.665 -0.4707 -0.0591  0.3444
 1969SOL     H132106   5.298   3.123   7.616  0.8233 -1.8869 -1.1438
 1969SOL     H232107   5.390   3.237   7.656 -2.2534  0.1680  0.2644
 1970SOL    OH232108   2.063   7.713   7.023  0.0537 -0.0006  0.1474
 1970SOL     H132109   1.997   7.743   7.085  0.3424  4.2729 -1.4420
 1970SOL     H232110   2.143   7.706   7.075 -0.6607 -0.9633  1.1583
 1971SOL    OH232111   7.690   0.743   6.738  0.0068 -0.2010  0.2366
 1971SOL     H132112   7.655   0.726   6.826 -1.1428 -0.4872 -0.2614
 1971SOL     H232113   7.771   0.791   6.753 -0.7541  0.7268  1.4164
 1972SOL    OH232114   7.294   5.532   0.073  0.4042 -0.1818 -0.0209
 1972SOL     H132115   7.382   5.568   0.058  1.3461 -2.5974 -0.5736
 1972SOL     H232116   7.305   5.437   0.064 -2.4722 -0.4779 -1.1004
 1973SOL    OH232117   7.129   1.269   1.286 -0.3705 -0.1811  0.2456
 1973SOL     H132118   7.204   1.213   1.267 -0.7913 -1.6702  2.7711
 1973SOL     H232119   7.136   1.286   1.380 -1.9312  1.5620  0.0601
 1974SOL    OH232120   5.028   4.169   7.702  0.3356  0.3913  0.3743
 1974SOL     H132121   5.024   4.259   7.736  0.7942  0.3116  0.6420
 1974SOL     H232122   4.943   4.156   7.661  0.0860  0.7837  0.7553
 1975SOL    OH232123   6.784   6.562   0.480  0.2641 -0.1677 -0.2077
 1975SOL     H132124   6.800   6.588   0.389  0.5197 -1.1393 -0.4456
 1975SOL     H232125   6.851   6.607   0.530 -0.9947  1.8311 -0.2625
 1976SOL    OH232126   5.667   7.275   8.122 -0.2488 -0.7324 -0.3107
 1976SOL     H132127   5.634   7.274   8.032  0.4911 -0.7716 -0.5849
 1976SOL     H232128   5.589   7.289   8.176 -0.5939  0.1139 -1.0112
 1977SOL    OH232129   0.633   7.742   7.644 -0.0460  0.0896  0.4303
 1977SOL     H132130   0.705   7.804   7.644 -0.3462  0.4857 -2.1466
 1977SOL     H232131   0.675   7.657   7.631 -0.0099  0.3444 -1.3062
 1978SOL    OH232132   3.475   5.916   0.246  0.3469 -0.4776 -0.1703
 1978SOL     H132133   3.569   5.930   0.260 -0.0124  0.5302  1.3722
 1978SOL     H232134   3.452   5.846   0.308 -0.2288  0.4091  0.6307
 1979SOL    OH232135   7.731   4.114   1.249 -0.1273  0.1786  0.3121
 1979SOL     H132136   7.762   4.024   1.254  0.5943  0.3741 -0.5698
 1979SOL     H232137   7.695   4.123   1.161 -2.1224  0.1456  1.1017
 1980SOL    OH232138   5.041   0.068   7.608 -0.3840  0.0358 -0.3095
 1980SOL     H132139   5.034   0.002   7.677  0.0094 -0.9169 -1.1811
 1980SOL     H232140   4.958   0.064   7.562 -0.7564  0.8712  0.2734
 1981SOL    OH232141   1.738   7.132   6.358 -0.1789  0.6098 -1.0133
 1981SOL     H132142   1.751   7.100   6.269  1.4060 -0.9492 -0.2511
 1981SOL     H232143   1.679   7.069   6.398  1.2832 -0.2267 -0.1395
 1982SOL    OH232144   4.101   3.950   6.595  0.3631 -0.2261  0.1180
 1982SOL     H132145   4.163   3.886   6.559  0.1558 -0.1000 -0.4615
 1982SOL     H232146   4.053   3.982   6.519  3.1671  3.5803 -0.1869
 1983SOL    OH232147   7.050   2.101   6.663 -0.5721 -0.4416  0.3242
 1983SOL     H132148   7.078   2.026   6.716  0.7777  0.6228  1.1533
 1983SOL     H232149   7.081   2.081   6.575 -0.3453 -0.9324  0.5107
 1984SOL    OH232150   0.226   1.877   7.972 -0.3784  0.2748 -0.0559
 1984SOL     H132151   0.195   1.789   7.992  1.2557 -0.1360  0.7613
 1984SOL     H232152   0.225   1.882   7.876  1.6717 -1.4477 -0.1988
 1985SOL    OH232153   5.517   5.434   7.118  0.1946 -0.3090 -0.3571
 1985SOL     H132154   5.546   5.383   7.193  2.5774 -1.2082 -1.8378
 1985SOL     H232155   5.557   5.520   7.131 -1.6727  0.4276  0.7824
 1986SOL    OH232156   4.535   5.207   0.641  0.0321 -0.1411  0.9257
 1986SOL     H132157   4.594   5.185   0.570  0.5366  0.1544  1.2512
 1986SOL     H232158   4.505   5.123   0.675  0.6012 -0.3019  1.0372
 1987SOL    OH232159   6.378   7.035   7.013 -0.5117  0.7487 -0.1884
 1987SOL     H132160   6.294   6.989   7.015  0.7967 -1.6904  2.0583
 1987SOL     H232161   6.435   6.980   6.959  0.6096  0.5032  1.1876
 1988SOL    OH232162   3.883   5.721   6.067  0.1252  0.4492  0.4556
 1988SOL     H132163   3.897   5.746   6.158  1.0231 -2.6744  1.2576
 1988SOL     H232164   3.969   5.731   6.026  0.7593 -2.0929  1.0467
 1989SOL    OH232165   0.115   2.543   1.217 -0.2074  0.4564  0.0084
 1989SOL     H132166   0.021   2.561   1.206  0.2021  1.3343 -2.2657
 1989SOL     H232167   0.146   2.521   1.130  1.1312 -2.8651  1.2373
 1990SOL    OH232168   1.936   7.092   7.978  0.6954 -0.1051 -0.5400
 1990SOL     H132169   1.894   7.044   7.907 -0.6158 -1.4311  1.0976
 1990SOL     H232170   1.910   7.046   8.058  3.2054  0.5691  0.7279
 1991SOL    OH232171   4.537   5.486   2.304 -0.5895  0.4018 -0.0903
 1991SOL     H132172   4.577   5.471   2.390 -0.8413 -0.6806 -0.1523
 1991SOL     H232173   4.537   5.581   2.294 -0.8226  0.5519  1.2369
 1992SOL    OH232174   4.602   7.419   0.824  0.3890  0.0928  0.3992
 1992SOL     H132175   4.616   7.438   0.917  1.0699  0.1423  0.2895
 1992SOL     H232176   4.687   7.435   0.783  0.5912 -1.7799  0.0574
 1993SOL    OH232177   2.129   2.459   1.277  0.1778  0.1061  0.2689
 1993SOL     H132178   2.186   2.387   1.307  0.6693  1.0520  1.6363
 1993SOL     H232179   2.093   2.496   1.358 -0.5192  1.0501 -0.4696
 1994SOL    OH232180   6.524   3.445   8.065  0.6314 -0.2970 -0.0816
 1994SOL     H132181   6.526   3.357   8.104  2.4245  0.5158  1.7976
 1994SOL     H232182   6.466   3.495   8.123  3.4469  0.9664  1.7783
 1995SOL    OH232183   1.031   0.041   0.694 -0.4387  0.1831 -0.5856
 1995SOL     H132184   0.955   0.044   0.751 -1.4012 -0.7439 -1.7768
 1995SOL     H232185   1.103   0.014   0.751 -1.7169 -2.4213 -0.1127
 1996SOL    OH232186   4.664   6.454   7.214 -0.2383 -0.4855  0.1068
 1996SOL     H132187   4.664   6.358   7.209 -2.3791 -0.4485 -1.2024
 1996SOL     H232188   4.594   6.474   7.277 -0.0796  0.2172  0.0534
 1997SOL    OH232189   0.462   7.793   1.527  0.0863  0.1362  0.2944
 1997SOL     H132190   0.373   7.806   1.558 -0.3484 -1.2044 -0.3711
 1997SOL     H232191   0.483   7.702   1.548  0.3825 -0.3102 -1.8034
 1998SOL    OH232192   5.687   4.430   1.036 -0.5513  0.3752 -0.2284
 1998SOL     H132193   5.626   4.357   1.044  0.8041 -0.7465  0.1789
 1998SOL     H232194   5.699   4.461   1.127  1.0224 -0.7175 -0.0498
 1999SOL    OH232195   5.082   6.307   6.266  0.0123  0.0005  0.4546
 1999SOL     H132196   5.119   6.383   6.221 -0.3830 -2.3923 -4.1973
 1999SOL     H232197   5.000   6.340   6.305  1.2578  2.5800  1.0118
 2000SOL    OH232198   5.296   1.339   6.793  0.4406 -0.0458 -0.3539
 2000SOL     H132199   5.202   1.357   6.783  0.4821  1.5625  1.8184
 2000SOL     H232200   5.339   1.417   6.759  0.9299 -0.0083  0.3538
 2001SOL    OH232201   3.245   7.340   6.712 -0.2569 -0.0674 -0.7145
 2001SOL     H132202   3.239   7.430   6.745  0.0237  0.0604 -1.0085
 2001SOL     H232203   3.273   7.289   6.788  0.5123  0.2450 -0.7766
 2002SOL    OH232204   0.579   3.583   1.310 -0.9531 -0.3601 -0.1412
 2002SOL     H132205   0.655   3.599   1.255 -0.0633  1.6676  1.5989
 2002SOL     H232206   0.614   3.537   1.386 -1.6091 -0.2490  0.2349
 2003SOL    OH232207   0.879   2.850   1.156 -0.3137 -0.5354  0.1726
 2003SOL     H132208   0.844   2.808   1.078 -1.8546  1.2796 -0.1319
 2003SOL     H232209   0.973   2.831   1.153 -0.3715 -0.6006 -2.0358
 2004SOL    OH232210   5.549   5.942   8.151  0.1516  0.2258 -0.2576
 2004SOL     H132211   5.457   5.923   8.168  0.5615 -0.6075  1.1287
 2004SOL     H232212   5.574   6.002   8.221  0.7826  0.0947 -0.3723
 2005SOL    OH232213   6.049   4.470   7.036 -0.1232 -0.5279  0.0781
 2005SOL     H132214   6.106   4.541   7.063 -2.0274  1.2361 -0.4301
 2005SOL     H232215   6.104   4.415   6.980  1.0549  1.1432 -0.4514
 2006SOL    OH232216   7.872   5.113   6.223 -0.6507 -0.4096 -0.2364
 2006SOL     H132217   7.852   5.021   6.207 -1.6198  0.0780 -1.9801
 2006SOL     H232218   7.949   5.130   6.169 -1.6697  0.2830 -1.5153
 2007SOL    OH232219   3.709   3.002   2.028  0.4623  0.2592 -1.1702
 2007SOL     H132220   3.692   3.010   1.934  0.5667  0.0442 -1.2068
 2007SOL     H232221   3.778   2.936   2.035 -0.8199 -1.0800 -0.8318
 2008SOL    OH232222   7.495   3.843   1.338  0.2988 -0.1744  0.0800
 2008SOL     H132223   7.530   3.755   1.345  1.6006  0.3880  0.7937
 2008SOL     H232224   7.520   3.886   1.420  2.1667  1.7241 -1.4123
 2009SOL    OH232225   1.843   4.164   0.474 -0.4826 -0.4251  0.4456
 2009SOL     H132226   1.848   4.095   0.408 -1.8217 -0.6642  0.5827
 2009SOL     H232227   1.917   4.146   0.532  1.9477  0.9659 -2.0634
 2010SOL    OH232228   5.073   6.952   0.099 -0.2119 -0.1507  0.2780
 2010SOL     H132229   5.132   6.951   0.023 -0.5990  0.7239 -0.0396
 2010SOL     H232230   5.091   7.036   0.141 -0.2701 -0.4752  0.9475
 2011SOL    OH232231   5.424   5.406   7.873  0.6270  0.1354 -0.4120
 2011SOL     H132232   5.427   5.466   7.947  1.9542  0.6887 -0.9093
 2011SOL     H232233   5.514   5.375   7.863  0.3612 -0.3117 -1.4859
 2012SOL    OH232234   7.647   6.963   6.699 -0.6910  0.4215 -0.0813
 2012SOL     H132235   7.602   7.030   6.751  0.3113  0.6446  0.5165
 2012SOL     H232236   7.677   7.010   6.621  0.7916  0.8848  0.7591
 2013SOL    OH232237   4.562   3.813   6.936  0.3708  0.4743 -0.0347
 2013SOL     H132238   4.539   3.768   7.018 -1.8965  1.8162  0.1109
 2013SOL     H232239   4.581   3.742   6.875 -1.3423 -0.6777  0.7092
 2014SOL    OH232240   6.492   0.531   0.364  0.3645  0.5838 -0.4936
 2014SOL     H132241   6.564   0.522   0.427 -0.6820 -0.1848  0.6116
 2014SOL     H232242   6.436   0.456   0.382  0.5743 -0.2005 -3.0444
 2015SOL    OH232243   1.216   5.624   5.861  0.1180  0.2613 -0.4547
 2015SOL     H132244   1.238   5.685   5.791 -0.1694  0.7400 -0.1349
 2015SOL     H232245   1.300   5.598   5.897  0.2304  0.8518 -0.2778
 2016SOL    OH232246   6.972   6.402   2.206 -0.1503 -0.6896 -0.2911
 2016SOL     H132247   6.882   6.375   2.221 -2.1109  3.4385 -3.5637
 2016SOL     H232248   6.991   6.464   2.277 -0.1524 -0.9500 -0.0624
 2017SOL    OH232249   2.395   6.821   6.818  0.0759 -0.0314 -0.1641
 2017SOL     H132250   2.400   6.909   6.856  0.0696 -0.1073  0.0146
 2017SOL     H232251   2.317   6.823   6.763 -0.4253 -0.1912  0.5299
 2018SOL    OH232252   5.279   0.945   1.011 -0.5039  0.0859 -0.3258
 2018SOL     H132253   5.217   1.013   0.984 -2.9984 -0.8138  2.8411
 2018SOL     H232254   5.321   0.981   1.089 -0.2635 -1.1344  0.1195
 2019SOL    OH232255   7.282   6.071   8.267  0.2375 -0.3314  0.2249
 2019SOL     H132256   7.354   6.127   8.298  1.5395 -2.7397  1.7027
 2019SOL     H232257   7.291   6.072   8.172  0.4189  1.6991  0.2321
 2020SOL    OH232258   7.124   0.263   0.305 -0.6515  0.3381  0.1538
 2020SOL     H132259   7.130   0.348   0.263  0.7798  0.0444 -0.2608
 2020SOL     H232260   7.113   0.201   0.234 -0.2591  0.0418  0.3463
 2021SOL    OH232261   4.627   6.119   7.810 -0.9659  0.1099 -0.2203
 2021SOL     H132262   4.639   6.056   7.740  1.6958  0.5219 -0.2010
 2021SOL     H232263   4.636   6.204   7.768  0.1524  0.3661  0.4967
 2022SOL    OH232264   6.129   0.665   5.983 -0.4985  0.3895  0.3450
 2022SOL     H132265   6.151   0.750   6.020  0.5112 -0.6889  2.2598
 2022SOL     H232266   6.033   0.667   5.975 -0.4698  1.7430  0.2751
 2023SOL    OH232267   0.186   1.931   0.711  0.0363  0.6165  0.0009
 2023SOL     H132268   0.164   2.024   0.706 -0.1372  0.6393  1.0283
 2023SOL     H232269   0.159   1.896   0.626 -0.2219  1.4332 -0.2686
 2024SOL    OH232270   4.158   6.097   0.600 -0.2003 -0.2261  0.1175
 2024SOL     H132271   4.206   6.068   0.523 -1.9875 -0.7896 -0.8126
 2024SOL     H232272   4.099   6.025   0.621 -1.8399  1.0993  0.2042
 2025SOL    OH232273   5.678   4.587   1.297  0.1088 -0.3145 -0.1591
 2025SOL     H132274   5.734   4.570   1.372 -0.1741  2.2224  0.6608
 2025SOL     H232275   5.588   4.580   1.331 -0.0180  1.2044 -0.1563
 2026SOL    OH232276   7.450   0.575   1.948  0.6739 -0.1121  0.3690
 2026SOL     H132277   7.496   0.610   1.872 -3.2121  1.4856 -1.4238
 2026SOL     H232278   7.438   0.651   2.006  0.0160 -0.4240  0.6491
 2027SOL    OH232279   2.188   4.592   7.259 -0.2396 -0.2461 -0.3395
 2027SOL     H132280   2.098   4.622   7.269 -0.3789 -0.7619 -0.0385
 2027SOL     H232281   2.198   4.577   7.165 -1.3618 -2.9172 -0.0801
 2028SOL    OH232282   2.115   2.201   7.082  0.2604  0.1261 -0.0774
 2028SOL     H132283   2.180   2.254   7.128 -0.7253  3.6522 -2.5397
 2028SOL     H232284   2.143   2.206   6.990 -2.4187  0.1328 -0.9137
 2029SOL    OH232285   7.606   5.918   7.296  0.2343  0.3412  0.2070
 2029SOL     H132286   7.617   5.963   7.380  3.4424 -0.9371  0.5431
 2029SOL     H232287   7.649   5.976   7.233 -0.8047  0.5416 -0.3342
 2030SOL    OH232288   1.651   2.510   0.763  0.6622  0.2894  0.4631
 2030SOL     H132289   1.669   2.477   0.851 -1.8251 -0.0677  0.8957
 2030SOL     H232290   1.719   2.575   0.747  2.5073 -1.2606  1.7230
 2031SOL    OH232291   1.227   5.049   0.314  0.4714 -0.0041  0.1517
 2031SOL     H132292   1.244   4.996   0.237  1.0163 -0.9227  0.8958
 2031SOL     H232293   1.150   5.101   0.292 -0.4490 -1.5539 -0.3479
 2032SOL    OH232294   5.803   3.406   1.646  0.6858  0.3048  0.6837
 2032SOL     H132295   5.774   3.447   1.727 -1.0816  1.5953 -0.5583
 2032SOL     H232296   5.749   3.328   1.637  2.9628 -1.5104  2.2421
 2033SOL    OH232297   2.899   0.566   7.974 -0.1421 -0.5416  0.2500
 2033SOL     H132298   2.961   0.523   8.033  1.1758  0.2297 -0.5408
 2033SOL     H232299   2.813   0.543   8.009  0.5741 -1.9771  1.1271
 2034SOL    OH232300   3.363   7.614   2.239  0.1782  0.9816 -0.0321
 2034SOL     H132301   3.293   7.558   2.205  1.6487  0.5989 -2.6017
 2034SOL     H232302   3.346   7.620   2.333 -0.2661 -3.5210  0.2788
 2035SOL    OH232303   4.701   1.572   7.757 -0.4147 -0.1422  0.1888
 2035SOL     H132304   4.628   1.535   7.807 -0.8710 -0.4517 -0.7075
 2035SOL     H232305   4.761   1.498   7.744 -0.2365 -0.0323  0.3654
 2036SOL    OH232306   6.147   3.689   1.590  0.5226  0.0546  0.4431
 2036SOL     H132307   6.186   3.660   1.507 -4.6215 -4.0006 -0.7910
 2036SOL     H232308   6.106   3.773   1.569  0.3426 -0.3350 -0.8092
 2037SOL    OH232309   3.604   1.367   0.993  0.0523 -0.4888 -0.0511
 2037SOL     H132310   3.540   1.304   0.959  0.0547  0.3422 -1.6899
 2037SOL     H232311   3.558   1.412   1.065 -0.2812 -1.6858  0.4848
 2038SOL    OH232312   4.669   2.901   1.973 -0.1295  0.2022 -0.0638
 2038SOL     H132313   4.625   2.939   2.048  1.1681  0.5684  0.5304
 2038SOL     H232314   4.746   2.956   1.959 -0.2501  0.0296 -1.5460
 2039SOL    OH232315   6.969   2.851   7.865 -0.1053 -0.3529 -0.1211
 2039SOL     H132316   6.961   2.757   7.881 -1.7038  0.1318  2.2035
 2039SOL     H232317   6.905   2.868   7.795  0.3144 -1.0071 -0.6721
 2040SOL    OH232318   7.948   4.791   6.351 -0.7623 -0.3366 -0.3296
 2040SOL     H132319   8.027   4.832   6.315 -0.8593 -0.9331 -1.2209
 2040SOL     H232320   7.878   4.815   6.290 -1.0378 -0.8459 -0.2210
 2041SOL    OH232321   4.792   5.654   7.095 -0.1967  0.1593 -0.0209
 2041SOL     H132322   4.873   5.618   7.131 -0.4910  1.5502  2.0920
 2041SOL     H232323   4.820   5.700   7.015  0.5902 -2.1385 -1.1129
 2042SOL    OH232324   6.590   3.864   1.537 -0.1339  0.0926  0.0277
 2042SOL     H132325   6.558   3.937   1.591 -0.4912 -0.4763  0.5912
 2042SOL     H232326   6.685   3.876   1.536 -0.2190  0.7743 -0.1811
 2043SOL    OH232327   0.938   2.859   1.626 -0.5351 -0.1270  0.0940
 2043SOL     H132328   0.847   2.828   1.635 -0.5285 -0.1103  0.2109
 2043SOL     H232329   0.987   2.781   1.599 -0.6165 -0.0960 -0.1459
 2044SOL    OH232330   6.606   4.155   6.917  0.3439  0.0097  0.7604
 2044SOL     H132331   6.559   4.237   6.930  1.4777  0.5853  1.3277
 2044SOL     H232332   6.549   4.087   6.954  0.2242  0.7596  1.9658
 2045SOL    OH232333   5.579   0.608   7.754 -0.9996  0.4097 -0.5457
 2045SOL     H132334   5.529   0.577   7.829 -1.7760  0.1908 -1.1502
 2045SOL     H232335   5.531   0.685   7.722  0.5955  1.9198  0.5961
 2046SOL    OH232336   4.893   4.967   7.497  0.4696 -0.1635 -0.2329
 2046SOL     H132337   4.867   4.883   7.460  0.2068 -0.2778  0.2023
 2046SOL     H232338   4.822   4.990   7.557  0.3083  0.5969 -0.7001
 2047SOL    OH232339   7.551   0.723   7.015  0.0529 -0.4489 -0.4968
 2047SOL     H132340   7.603   0.781   7.070  0.3309 -0.4423 -0.7639
 2047SOL     H232341   7.531   0.648   7.070 -0.9546  0.2486  0.1021
 2048SOL    OH232342   1.207   1.377   1.794  0.1085  0.6012  0.2106
 2048SOL     H132343   1.132   1.401   1.741  0.1434  2.2371  0.8675
 2048SOL     H232344   1.281   1.376   1.733  0.0301  1.8154  0.0815
 2049SOL    OH232345   5.928   5.613   0.327  0.5866 -0.2099  0.4954
 2049SOL     H132346   5.871   5.575   0.394 -1.2559  1.3191 -0.1658
 2049SOL     H232347   5.903   5.568   0.247 -0.4785  1.2269  0.0033
 2050SOL    OH232348   7.027   0.349   8.229 -0.3027  0.3255  0.0593
 2050SOL     H132349   7.099   0.412   8.235  0.8492 -1.1003  1.8314
 2050SOL     H232350   6.956   0.389   8.280 -0.4576  1.2822 -0.8750
 2051SOL    OH232351   1.433   6.577   5.676 -0.0414  0.3031  0.0191
 2051SOL     H132352   1.423   6.490   5.714  0.8666 -0.2543 -0.9936
 2051SOL     H232353   1.343   6.606   5.659 -0.3574 -0.3629  0.5199
 2052SOL    OH232354   0.113   5.904   8.229  0.2169 -0.2904 -0.1812
 2052SOL     H132355   0.205   5.910   8.255 -0.2125 -1.8011  1.8071
 2052SOL     H232356   0.109   5.827   8.173  0.1141 -0.4500  0.0416
 2053SOL    OH232357   0.454   2.464   7.304  0.1785 -0.4902  0.3223
 2053SOL     H132358   0.467   2.550   7.263  0.6520  0.2936  2.0483
 2053SOL     H232359   0.478   2.478   7.396 -1.9331 -1.9036  1.1233
 2054SOL    OH232360   3.924   7.732   1.358  0.3756  0.2401 -0.0612
 2054SOL     H132361   3.925   7.637   1.366 -0.3261  0.3514  1.5848
 2054SOL     H232362   3.861   7.761   1.424 -0.0043  1.8038 -1.0651
 2055SOL    OH232363   7.690   1.730   7.979  0.8197  0.3831  0.1450
 2055SOL     H132364   7.737   1.712   7.898  1.6187  2.9582 -0.0232
 2055SOL     H232365   7.654   1.818   7.967 -1.6134 -0.4016  1.4079
 2056SOL    OH232366   5.373   0.764   1.271  0.6669 -0.3361  0.0952
 2056SOL     H132367   5.324   0.686   1.299 -3.6865  1.7518 -1.2806
 2056SOL     H232368   5.423   0.735   1.195 -1.2497 -1.7492 -0.6824
 2057SOL    OH232369   3.702   0.315   6.228 -0.4662  0.2087 -0.2130
 2057SOL     H132370   3.676   0.390   6.174 -1.7963  0.3588  0.5937
 2057SOL     H232371   3.691   0.347   6.318  1.7532 -0.0223  0.1512
 2058SOL    OH232372   3.880   4.652   8.099 -0.1924 -0.1231  0.4673
 2058SOL     H132373   3.840   4.739   8.105  1.2184  0.4519  1.8212
 2058SOL     H232374   3.810   4.592   8.125 -1.0508  0.6146 -0.0765
 2059SOL    OH232375   3.571   6.399   2.168  0.1624 -0.2188 -0.2298
 2059SOL     H132376   3.527   6.357   2.242 -0.6784  0.6703 -0.2238
 2059SOL     H232377   3.508   6.394   2.096  0.2523  0.6035 -0.3664
 2060SOL    OH232378   4.106   4.838   0.188  0.0205 -0.8176  0.1125
 2060SOL     H132379   4.167   4.909   0.167 -0.4023 -0.2316  0.8128
 2060SOL     H232380   4.137   4.804   0.272 -0.3280 -0.8323  0.2368
 2061SOL    OH232381   4.905   2.702   0.861  0.0280 -0.1245 -0.1008
 2061SOL     H132382   4.979   2.764   0.858  0.8449 -1.0585  0.2848
 2061SOL     H232383   4.926   2.637   0.793 -0.5798 -0.2417 -0.1770
 2062SOL    OH232384   3.496   7.244   6.976 -0.2967  0.0912  0.1687
 2062SOL     H132385   3.407   7.209   6.979  0.3135 -1.4431  2.1008
 2062SOL     H232386   3.505   7.292   7.058  1.4409 -1.8875  1.1798
 2063SOL    OH232387   1.996   1.957   1.016 -0.2256  0.0656  0.3988
 2063SOL     H132388   2.041   1.894   1.073  1.9365 -0.3737 -1.7415
 2063SOL     H232389   1.928   1.907   0.972  0.8008 -0.5446 -0.5007
 2064SOL    OH232390   7.646   4.152   7.347 -0.0851 -0.2683  0.5635
 2064SOL     H132391   7.595   4.123   7.272 -0.2306 -0.2735  0.6633
 2064SOL     H232392   7.580   4.168   7.415 -0.0511  0.7000  0.3766
 2065SOL    OH232393   2.500   1.634   0.735  0.2327  0.5639  0.1840
 2065SOL     H132394   2.410   1.621   0.704 -0.0983  1.3514  0.8188
 2065SOL     H232395   2.501   1.592   0.821  1.2816 -2.0496 -1.0625
 2066SOL    OH232396   0.634   7.454   7.905  0.1580  0.1431  0.6317
 2066SOL     H132397   0.651   7.441   7.811 -1.4794 -0.8586  0.4562
 2066SOL     H232398   0.587   7.538   7.908  0.4363  0.3027  0.5913
 2067SOL    OH232399   2.624   6.928   1.112  0.7557 -0.4306 -0.9279
 2067SOL     H132400   2.582   6.843   1.099 -0.7657  0.3987 -1.5101
 2067SOL     H232401   2.564   6.977   1.167  0.9823  0.7502 -1.7155
 2068SOL    OH232402   7.193   2.466   1.644  0.1966  0.3173  0.0574
 2068SOL     H132403   7.263   2.528   1.662 -0.8466  1.2938  0.8340
 2068SOL     H232404   7.145   2.459   1.726 -0.1181 -1.0062 -0.2143
 2069SOL    OH232405   2.571   3.548   5.876 -0.0414 -0.3627 -0.3936
 2069SOL     H132406   2.540   3.537   5.786 -0.9192  0.4969 -0.1965
 2069SOL     H232407   2.536   3.472   5.923  0.3839 -0.7908 -0.7662
 2070SOL    OH232408   1.794   7.532   7.359 -0.2101 -0.4317  0.4385
 2070SOL     H132409   1.765   7.511   7.448 -0.1239 -1.9291  0.1238
 2070SOL     H232410   1.727   7.493   7.302  0.2187 -0.2732 -0.1802
 2071SOL    OH232411   3.291   1.439   0.565 -0.6355 -0.4958 -0.3717
 2071SOL     H132412   3.359   1.424   0.500  0.1205  0.7693  0.1134
 2071SOL     H232413   3.214   1.393   0.531  0.9018 -3.3221 -0.1143
 2072SOL    OH232414   5.457   6.851   6.486  0.0560  0.0159  0.3324
 2072SOL     H132415   5.538   6.899   6.505  1.0804 -1.0726 -1.1813
 2072SOL     H232416   5.480   6.759   6.501 -0.6055 -0.3829 -1.0733
 2073SOL    OH232417   2.966   7.488   6.703 -0.0409  0.2242  0.4086
 2073SOL     H132418   2.915   7.494   6.784 -3.7585  2.7198 -1.9989
 2073SOL     H232419   2.907   7.448   6.640  2.1842 -0.0294 -1.5707
 2074SOL    OH232420   4.148   3.723   2.123 -0.2776  0.2219 -0.5997
 2074SOL     H132421   4.238   3.742   2.099 -0.7743 -1.1071 -3.7153
 2074SOL     H232422   4.155   3.655   2.190  1.0216 -0.0160 -0.9595
 2075SOL    OH232423   6.972   3.595   0.194 -0.5419  0.3891  0.0988
 2075SOL     H132424   6.987   3.561   0.282  2.5424  0.6039 -0.3102
 2075SOL     H232425   6.911   3.532   0.155 -1.4147 -0.0702  2.1277
 2076SOL    OH232426   3.309   3.310   6.346  0.6630 -0.3822  0.2283
 2076SOL     H132427   3.254   3.237   6.318  0.9743 -0.4213 -0.2798
 2076SOL     H232428   3.386   3.306   6.289  0.6533  0.3843  0.1512
 2077SOL    OH232429   4.265   2.295   1.404 -0.3114 -0.0897  0.0591
 2077SOL     H132430   4.205   2.223   1.421  1.4813 -2.2166 -2.3102
 2077SOL     H232431   4.349   2.265   1.438  0.2925  1.1962 -0.2572
 2078SOL    OH232432   5.683   6.968   1.464 -0.4819  0.5149 -0.3485
 2078SOL     H132433   5.682   7.063   1.471 -0.0154  0.5041 -0.1084
 2078SOL     H232434   5.669   6.937   1.553 -0.8562  0.3567 -0.4610
 2079SOL    OH232435   6.206   7.379   0.953 -0.6339  0.0519  0.2584
 2079SOL     H132436   6.140   7.358   0.887 -1.7333  2.0449  0.7041
 2079SOL     H232437   6.231   7.470   0.934  0.3330  0.0655  1.5097
 2080SOL    OH232438   0.801   0.445   7.119  0.1758  0.3967 -0.0607
 2080SOL     H132439   0.783   0.351   7.113 -0.2564  0.5091 -0.5117
 2080SOL     H232440   0.814   0.461   7.212  1.9045 -0.4230 -0.1309
 2081SOL    OH232441   5.532   7.095   0.939  0.5058 -0.3841  0.0038
 2081SOL     H132442   5.467   7.029   0.916  0.4311 -0.3607  0.1488
 2081SOL     H232443   5.552   7.079   1.031  1.9838 -1.4873 -0.4924
 2082SOL    OH232444   6.928   7.167   1.978  0.4525  0.8893 -0.1344
 2082SOL     H132445   6.857   7.113   1.942 -0.2629  1.8706 -0.2082
 2082SOL     H232446   6.894   7.256   1.977  1.1313  1.1784  1.2514
 2083SOL    OH232447   2.447   1.923   7.113  0.1399  0.0371  0.1456
 2083SOL     H132448   2.498   1.855   7.069  2.4331  0.3585  2.1803
 2083SOL     H232449   2.362   1.923   7.069  1.2962 -1.7683 -2.1400
 2084SOL    OH232450   5.670   7.929   1.864 -0.2508  0.0569  0.1989
 2084SOL     H132451   5.655   7.840   1.832  1.3871  1.2760 -4.5202
 2084SOL     H232452   5.765   7.934   1.879 -0.8429 -0.1031  4.3795
 2085SOL    OH232453   4.217   2.701   7.384  0.7088 -0.4940  0.6635
 2085SOL     H132454   4.223   2.674   7.476  1.3023 -0.4655  0.6362
 2085SOL     H232455   4.149   2.769   7.384  1.8255  0.6403  1.3449
 2086SOL    OH232456   5.550   5.210   5.984  0.3048 -0.3186  0.0021
 2086SOL     H132457   5.636   5.174   6.003 -0.3902 -1.3839  1.2254
 2086SOL     H232458   5.561   5.305   5.990  1.7049 -0.3963 -1.2666
 2087SOL    OH232459   2.569   2.343   6.640  0.4230  0.9252  0.4288
 2087SOL     H132460   2.551   2.296   6.721  2.0554 -0.9431 -0.2728
 2087SOL     H232461   2.656   2.314   6.613  0.4117  2.4249 -1.3778
 2088SOL    OH232462   4.274   4.585   6.392 -0.1605 -0.1135 -0.1189
 2088SOL     H132463   4.369   4.594   6.404 -0.1132 -1.5543  0.6805
 2088SOL     H232464   4.254   4.496   6.421 -1.7538  0.1433 -0.3729
 2089SOL    OH232465   4.500   1.762   7.891  0.4202 -0.2430  0.3535
 2089SOL     H132466   4.497   1.677   7.848 -1.3186 -0.1049  0.1669
 2089SOL     H232467   4.480   1.744   7.983 -0.6000  0.0418  0.1893
 2090SOL    OH232468   4.097   5.695   7.067 -0.1231  0.4141  0.1261
 2090SOL     H132469   4.085   5.635   7.140 -0.7283 -0.3198 -0.5778
 2090SOL     H232470   4.011   5.703   7.026  0.4020  0.0808 -1.0783
 2091SOL    OH232471   7.808   6.450   7.583 -0.1777 -0.6009  0.1708
 2091SOL     H132472   7.746   6.436   7.512  0.0906 -0.4490 -0.0978
 2091SOL     H232473   7.821   6.545   7.585  0.0855 -0.6349  0.1847
 2092SOL    OH232474   2.941   6.199   0.835  0.1935 -0.3714 -0.2374
 2092SOL     H132475   3.027   6.238   0.815 -0.6470  2.3729  1.2501
 2092SOL     H232476   2.893   6.203   0.752  1.7625 -2.7152 -1.3023
 2093SOL    OH232477   1.604   2.079   7.435 -1.4719 -0.2395 -0.1494
 2093SOL     H132478   1.660   2.126   7.497 -1.0069  0.5256 -1.1450
 2093SOL     H232479   1.533   2.140   7.415 -0.5929  0.2509 -1.8368
 2094SOL    OH232480   2.365   0.154   6.328 -0.3295 -0.0812 -0.2017
 2094SOL     H132481   2.438   0.101   6.294  0.9957  1.7134 -0.2693
 2094SOL     H232482   2.401   0.196   6.407 -1.1404  1.1625 -0.4812
 2095SOL    OH232483   3.117   6.203   7.104  0.6285 -0.1385  0.2109
 2095SOL     H132484   3.134   6.297   7.108 -1.2591  0.2433 -0.6940
 2095SOL     H232485   3.120   6.174   7.195  1.8534  0.6580  0.4413
 2096SOL    OH232486   7.109   7.441   1.922 -0.1124 -0.6098  0.9280
 2096SOL     H132487   7.022   7.477   1.907  0.5690  0.7751  0.1842
 2096SOL     H232488   7.123   7.382   1.848 -0.8744 -1.7408  1.6716
 2097SOL    OH232489   7.209   5.588   7.621  0.0746 -0.8057  0.0232
 2097SOL     H132490   7.115   5.574   7.608  0.0202 -1.5427  1.1212
 2097SOL     H232491   7.241   5.621   7.537 -1.3566  0.4328 -0.0472
 2098SOL    OH232492   0.661   7.070   6.788 -0.0148  0.0628  0.3628
 2098SOL     H132493   0.568   7.070   6.810  0.0137 -0.2735  0.4844
 2098SOL     H232494   0.676   7.156   6.748 -0.2277  0.3718  0.9486
 2099SOL    OH232495   4.358   1.619   1.138  0.2027 -0.2773 -0.6113
 2099SOL     H132496   4.412   1.630   1.216 -0.8219  0.3469  0.0223
 2099SOL     H232497   4.324   1.707   1.120  1.0724 -0.2554 -2.2307
 2100SOL    OH232498   1.761   5.879   7.019 -0.1988 -0.5828 -0.6246
 2100SOL     H132499   1.744   5.800   6.967 -1.9874 -1.7364  1.6222
 2100SOL     H232500   1.687   5.936   7.000  0.6117  0.1621 -1.5279
 2101SOL    OH232501   2.704   1.118   0.444 -0.2965 -0.1734  0.1055
 2101SOL     H132502   2.615   1.084   0.448 -0.4534  0.2014 -0.1522
 2101SOL     H232503   2.730   1.107   0.353 -0.0782 -0.2838  0.1806
 2102SOL    OH232504   6.748   1.389   7.613  0.3721 -0.0922  0.2719
 2102SOL     H132505   6.672   1.426   7.569  0.9654 -1.1436 -1.7181
 2102SOL     H232506   6.712   1.349   7.692 -0.7760  1.5323  0.6038
 2103SOL    OH232507   7.147   6.093   7.870  0.6155 -0.0729 -0.5430
 2103SOL     H132508   7.078   6.114   7.807  0.5147  1.1810 -0.0369
 2103SOL     H232509   7.100   6.070   7.950  0.7674  2.2654  0.2588
 2104SOL    OH232510   3.848   7.846   7.977  0.1122  0.0182  0.4490
 2104SOL     H132511   3.908   7.833   8.051 -0.3634 -1.2519  0.6252
 2104SOL     H232512   3.761   7.848   8.017 -0.0662  0.4993  0.0427
 2105SOL    OH232513   7.514   4.256   6.276  0.3256  0.2497  0.1038
 2105SOL     H132514   7.500   4.204   6.196 -0.3848 -0.7541  0.8760
 2105SOL     H232515   7.564   4.332   6.246 -0.6278  0.2863 -1.4413
 2106SOL    OH232516   3.698   6.396   7.754 -0.0639  0.2712 -0.1687
 2106SOL     H132517   3.709   6.310   7.714  0.6046  0.7762 -1.0735
 2106SOL     H232518   3.752   6.393   7.833 -1.1710 -0.6271  0.5747
 2107SOL    OH232519   4.861   6.163   1.345  0.2184 -0.7922 -0.7828
 2107SOL     H132520   4.898   6.075   1.358  1.0625 -0.3549 -0.1719
 2107SOL     H232521   4.930   6.222   1.374 -0.1062  0.0956 -1.8026
 2108SOL    OH232522   5.220   2.635   1.114  0.1671 -0.1331 -0.3616
 2108SOL     H132523   5.307   2.657   1.078  0.0993 -0.9512 -1.0382
 2108SOL     H232524   5.207   2.543   1.091 -1.1690  0.1663 -0.8550
 2109SOL    OH232525   0.524   3.434   0.264  0.0171  0.6688  0.0864
 2109SOL     H132526   0.533   3.474   0.350 -0.1876 -1.2832  1.0611
 2109SOL     H232527   0.517   3.340   0.282 -0.6201  0.2740 -2.0212
 2110SOL    OH232528   6.587   7.883   1.539 -0.6989 -0.4129  0.2084
 2110SOL     H132529   6.615   7.868   1.449 -1.5602  0.9734 -0.3149
 2110SOL     H232530   6.497   7.851   1.541 -1.1330  0.7909  0.2038
 2111SOL    OH232531   7.456   5.901   6.641  0.4417 -0.4631 -0.0123
 2111SOL     H132532   7.507   5.862   6.711  0.5307 -1.5708 -0.6749
 2111SOL     H232533   7.496   5.987   6.626  1.5686 -0.9755  0.0370
 2112SOL    OH232534   1.756   2.183   0.157 -0.4880  0.8668 -0.6627
 2112SOL     H132535   1.843   2.178   0.117  0.6387  0.9375  1.7226
 2112SOL     H232536   1.713   2.102   0.132  0.7010  0.2974 -0.8647
 2113SOL    OH232537   6.932   5.928   6.627 -0.2066 -0.1074 -0.1370
 2113SOL     H132538   6.964   5.859   6.685  0.8858  1.0125  0.6211
 2113SOL     H232539   7.008   5.954   6.575 -0.9993 -0.5848 -1.5549
 2114SOL    OH232540   5.070   0.588   1.489  0.2447  0.3087 -0.3014
 2114SOL     H132541   5.127   0.562   1.561 -1.0176 -0.8967  0.2979
 2114SOL     H232542   5.123   0.574   1.410  0.7232 -0.9472  0.2320
 2115SOL    OH232543   7.940   7.774   7.502  0.7372  0.0595 -0.0674
 2115SOL     H132544   8.011   7.782   7.565  1.2395  0.6117 -0.7030
 2115SOL     H232545   7.899   7.690   7.524  0.4377  0.5941  1.4635
 2116SOL    OH232546   2.174   7.228   1.471  0.1894 -0.1660 -0.2330
 2116SOL     H132547   2.104   7.254   1.411  0.0911 -1.4579 -0.6933
 2116SOL     H232548   2.230   7.305   1.477 -0.7283  0.5453 -0.6465
 2117SOL    OH232549   6.860   7.036   1.551  0.1654 -0.3018 -0.0127
 2117SOL     H132550   6.875   7.129   1.533 -1.1180  0.0744  0.7511
 2117SOL     H232551   6.937   7.009   1.601  0.1759  0.5695  0.4632
 2118SOL    OH232552   2.853   6.231   2.432  0.2448  0.2482 -0.0087
 2118SOL     H132553   2.761   6.253   2.420  0.5924  0.7228 -2.0274
 2118SOL     H232554   2.887   6.298   2.492 -0.8481 -0.2757  1.2047
 2119SOL    OH232555   2.807   6.188   1.139  0.5479 -0.0993  0.2374
 2119SOL     H132556   2.810   6.093   1.152  0.0415 -0.2631 -0.7975
 2119SOL     H232557   2.899   6.213   1.129  0.5648 -0.7555 -1.3414
 2120SOL    OH232558   7.582   1.771   1.090  0.2724 -0.4314  0.0747
 2120SOL     H132559   7.567   1.677   1.100 -3.2576  0.2524  1.9866
 2120SOL     H232560   7.603   1.801   1.178  0.4036  0.7183 -0.3498
 2121SOL    OH232561   4.249   0.975   2.100  0.7701 -0.0335  0.0398
 2121SOL     H132562   4.271   0.980   2.193  2.7465  1.1689 -0.4498
 2121SOL     H232563   4.308   0.908   2.065  0.4658 -0.0355 -0.4774
 2122SOL    OH232564   5.698   3.190   6.912  0.0077 -0.0691  0.1541
 2122SOL     H132565   5.625   3.154   6.863  0.4223  2.1971 -2.2297
 2122SOL     H232566   5.663   3.270   6.952  0.1815 -0.9344  2.1207
 2123SOL    OH232567   4.264   1.062   6.974 -0.2556  0.2880 -0.2042
 2123SOL     H132568   4.326   1.132   6.995 -1.0805  0.2448  2.4465
 2123SOL     H232569   4.181   1.107   6.959 -0.5922 -0.0395  0.6551
 2124SOL    OH232570   0.385   4.634   0.117 -0.3213 -0.4166 -0.2503
 2124SOL     H132571   0.343   4.717   0.096 -1.1629 -1.0973 -1.3150
 2124SOL     H232572   0.394   4.635   0.213 -1.4286  0.3806 -0.1421
 2125SOL    OH232573   3.082   3.675   6.558  0.1066 -0.2414  0.2697
 2125SOL     H132574   3.079   3.763   6.521  0.3248  0.0019  0.8342
 2125SOL     H232575   3.163   3.673   6.609 -0.3272 -0.4987  0.9486
 2126SOL    OH232576   2.431   1.314   8.238  0.0794 -0.2845  0.3287
 2126SOL     H132577   2.376   1.263   8.178  1.3923 -0.6840 -0.5498
 2126SOL     H232578   2.390   1.400   8.241  1.0557  0.3495 -2.6744
 2127SOL    OH232579   1.281   3.039   2.559 -0.1445 -0.3810  0.4928
 2127SOL     H132580   1.349   2.986   2.518  1.3985  2.0519 -0.2473
 2127SOL     H232581   1.199   3.001   2.529  0.9362 -1.3147 -1.3526
 2128SOL    OH232582   3.171   7.404   2.257  0.3475 -0.3183  0.1548
 2128SOL     H132583   3.078   7.389   2.276  1.1886 -1.2255  3.9580
 2128SOL     H232584   3.209   7.316   2.255  1.1276  0.0398 -1.6050
 2129SOL    OH232585   0.808   0.743   0.547 -0.2776 -0.3038  0.0806
 2129SOL     H132586   0.739   0.783   0.495  0.1912  2.5708  1.6047
 2129SOL     H232587   0.797   0.779   0.635  3.5050  0.6954  0.2340
 2130SOL    OH232588   5.210   3.657   0.359 -0.3900 -0.6398 -0.0606
 2130SOL     H132589   5.182   3.748   0.367 -2.4386 -1.1686 -1.0346
 2130SOL     H232590   5.293   3.663   0.311  0.6731  0.8506  1.8863
 2131SOL    OH232591   7.223   1.888   1.247  0.4827 -0.2304 -0.0063
 2131SOL     H132592   7.213   1.815   1.307 -0.9006  1.5585  2.0102
 2131SOL     H232593   7.133   1.919   1.231  1.0355  1.0472 -0.8080
 2132SOL    OH232594   3.235   0.907   7.357  1.0214  0.5577  0.3145
 2132SOL     H132595   3.190   0.988   7.383  1.7121  0.7386  0.9563
 2132SOL     H232596   3.242   0.857   7.438 -1.0159 -0.9572 -0.4059
 2133SOL    OH232597   4.639   6.760   0.193  0.2450 -0.3141  0.0463
 2133SOL     H132598   4.687   6.710   0.259  1.8729 -0.9012 -1.5305
 2133SOL     H232599   4.706   6.786   0.130 -0.7396  3.0150  0.3012
 2134SOL    OH232600   4.014   3.657   5.968  0.1398 -0.5287 -0.2692
 2134SOL     H132601   3.988   3.736   6.017  0.1691 -0.6432 -0.0672
 2134SOL     H232602   3.980   3.584   6.021 -1.5931 -0.6045 -1.4404
 2135SOL    OH232603   3.311   3.866   1.237  0.6612 -0.1568 -0.1581
 2135SOL     H132604   3.368   3.790   1.246 -0.0327 -0.6976 -0.2867
 2135SOL     H232605   3.342   3.910   1.157 -1.6046 -2.6429 -2.5138
 2136SOL    OH232606   5.197   0.287   1.069  0.2406  0.2392  0.5121
 2136SOL     H132607   5.276   0.285   1.013  0.6050  0.0639  1.0280
 2136SOL     H232608   5.131   0.331   1.015  1.1555  1.8683  0.6704
 2137SOL    OH232609   0.376   5.404   7.234  0.5131  0.0349  0.4225
 2137SOL     H132610   0.339   5.350   7.303  0.7582 -2.0334 -1.0036
 2137SOL     H232611   0.307   5.409   7.167  0.9567  0.4016 -0.0173
 2138SOL    OH232612   4.051   6.796   8.153 -0.3857  0.3864  0.1904
 2138SOL     H132613   4.073   6.703   8.163  0.3483  0.5223 -0.0755
 2138SOL     H232614   4.071   6.815   8.061  0.9088  1.1653  0.6104
 2139SOL    OH232615   3.682   3.266   1.872  0.4310  0.0212 -0.3478
 2139SOL     H132616   3.759   3.212   1.855 -1.1716 -2.7114  0.8019
 2139SOL     H232617   3.696   3.300   1.961  1.3800  1.4214 -1.0233
 2140SOL    OH232618   0.810   6.938   1.094 -0.1683 -0.2199  0.7124
 2140SOL     H132619   0.857   6.948   1.012 -0.6114 -0.9267  0.3648
 2140SOL     H232620   0.732   6.888   1.071  0.4970 -1.8202  1.8293
 2141SOL    OH232621   2.810   3.662   1.710  0.2796  0.1964  0.4200
 2141SOL     H132622   2.793   3.627   1.798 -0.4259 -1.5725 -0.4022
 2141SOL     H232623   2.844   3.750   1.726  0.8148 -0.3501  2.5027
 2142SOL    OH232624   4.097   3.743   1.816 -0.0280  0.4391  0.3562
 2142SOL     H132625   4.036   3.814   1.838 -1.2276 -0.6131  0.5002
 2142SOL     H232626   4.049   3.663   1.837  1.5323 -0.4119  0.7533
 2143SOL    OH232627   6.290   0.895   7.886  0.2423  0.4151  0.5793
 2143SOL     H132628   6.361   0.861   7.832  0.5533  0.4587  0.9663
 2143SOL     H232629   6.274   0.827   7.951 -0.6348  0.0312 -0.0115
 2144SOL    OH232630   3.023   6.194   1.554 -0.3808 -0.4139  0.1954
 2144SOL     H132631   3.051   6.272   1.602 -0.0963 -0.3180 -0.1260
 2144SOL     H232632   3.050   6.210   1.464 -2.0425 -0.0323 -0.2615
 2145SOL    OH232633   1.575   4.923   0.185 -0.1747 -0.1171 -0.2200
 2145SOL     H132634   1.530   4.865   0.247 -1.1892  0.7014 -0.1767
 2145SOL     H232635   1.634   4.975   0.238 -0.7278  0.2803  0.0157
 2146SOL    OH232636   5.207   7.360   1.335  0.5362 -0.2918 -0.1869
 2146SOL     H132637   5.169   7.389   1.252  0.0747  0.3356  0.2384
 2146SOL     H232638   5.257   7.282   1.313 -2.4222 -2.1930 -0.4842
 2147SOL    OH232639   4.189   5.190   6.318 -0.2789 -0.4960  0.0466
 2147SOL     H132640   4.232   5.247   6.254 -0.4111 -0.1413  0.2787
 2147SOL     H232641   4.214   5.225   6.403 -0.5371 -0.6495  0.1874
 2148SOL    OH232642   6.532   1.223   0.987  0.2474  0.3140 -0.0403
 2148SOL     H132643   6.628   1.220   0.981  0.6249 -0.3105  4.7057
 2148SOL     H232644   6.504   1.135   0.959  1.1523  0.0245 -0.0655
 2149SOL    OH232645   0.434   3.655   6.826 -0.5222 -0.5938  0.3029
 2149SOL     H132646   0.362   3.659   6.888 -1.6462 -1.8590 -0.8733
 2149SOL     H232647   0.463   3.564   6.828  1.3682 -0.0052  1.0986
 2150SOL    OH232648   2.098   6.272   7.196  0.0665 -0.2748 -0.0814
 2150SOL     H132649   2.163   6.341   7.208 -0.7382  0.3129  0.9678
 2150SOL     H232650   2.085   6.267   7.101  1.6868 -0.4609 -0.3070
 2151SOL    OH232651   7.578   5.563   2.763 -0.3364  0.4349  0.2329
 2151SOL     H132652   7.625   5.582   2.845 -0.5697  0.8697  0.2686
 2151SOL     H232653   7.601   5.473   2.743 -1.4812 -0.1703  1.5933
 2152SOL    OH232654   5.368   4.624   3.069  0.1525  0.1637 -0.6085
 2152SOL     H132655   5.326   4.698   3.025  0.4497  1.2949  0.9733
 2152SOL     H232656   5.295   4.571   3.101 -0.1091  1.6114  1.2811
 2153SOL    OH232657   2.490   5.592   1.754  0.1988  0.4126  0.2000
 2153SOL     H132658   2.525   5.668   1.707  0.7190  0.6733  1.0053
 2153SOL     H232659   2.484   5.620   1.845 -0.7641 -0.1134  0.3100
 2154SOL    OH232660   7.705   5.449   0.836 -0.1118  0.2897 -0.0536
 2154SOL     H132661   7.686   5.362   0.801  0.6548  0.0035  0.2242
 2154SOL     H232662   7.664   5.450   0.922 -0.8800  0.5257 -0.4177
 2155SOL    OH232663   2.291   1.290   0.376 -0.9223 -1.3133 -0.7223
 2155SOL     H132664   2.231   1.231   0.332 -0.6042 -2.3040  0.1577
 2155SOL     H232665   2.374   1.244   0.377 -0.6315 -0.7831 -0.1681
 2156SOL    OH232666   5.934   5.555   8.113 -0.1315 -0.2352  0.4125
 2156SOL     H132667   5.977   5.545   8.028 -0.7448  0.6743 -0.0232
 2156SOL     H232668   5.885   5.474   8.125 -1.0458  0.1225 -0.7013
 2157SOL    OH232669   0.207   7.457   5.451  0.1318  0.2995  0.3150
 2157SOL     H132670   0.168   7.516   5.515  0.8521  0.3472  0.7186
 2157SOL     H232671   0.281   7.507   5.416 -0.5028  0.4367 -0.8613
 2158SOL    OH232672   3.503   2.340   7.069  0.5586 -0.3012  0.0569
 2158SOL     H132673   3.589   2.369   7.038  0.5297  1.9609  1.9954
 2158SOL     H232674   3.442   2.408   7.041 -0.3398 -1.0311  0.2004
 2159SOL    OH232675   1.497   1.420   1.658 -0.5893 -0.3354 -0.5742
 2159SOL     H132676   1.559   1.361   1.614  0.7934  0.7050 -0.0689
 2159SOL     H232677   1.496   1.498   1.603 -0.5891  0.0913  0.0271
 2160SOL    OH232678   1.654   6.363   6.993  0.5786  0.0570 -0.0506
 2160SOL     H132679   1.661   6.427   7.063 -2.8338  0.5700 -0.0717
 2160SOL     H232680   1.629   6.414   6.916 -0.4329 -1.0577 -0.4819
 2161SOL    OH232681   1.673   2.309   0.990  0.1215 -0.1707  0.4462
 2161SOL     H132682   1.614   2.250   0.942 -0.0411  0.6157 -0.3341
 2161SOL     H232683   1.741   2.251   1.025  1.0917 -0.6161 -2.0356
 2162SOL    OH232684   6.248   1.880   7.803 -0.0155 -0.4056 -0.7677
 2162SOL     H132685   6.162   1.918   7.822  0.3264  1.2391 -2.3531
 2162SOL     H232686   6.280   1.847   7.887 -1.8979 -0.4235 -0.0432
 2163SOL    OH232687   5.384   0.526   2.585 -0.6370  0.0057  0.5482
 2163SOL     H132688   5.369   0.588   2.513  2.6081 -0.0257 -0.2284
 2163SOL     H232689   5.442   0.573   2.645 -2.2742 -0.4515  2.5360
 2164SOL    OH232690   3.635   6.249   0.381  0.2368  0.6099  0.2505
 2164SOL     H132691   3.653   6.180   0.317 -1.0117 -0.9838  1.5897
 2164SOL     H232692   3.634   6.330   0.329 -2.2629 -0.8046 -2.0633
 2165SOL    OH232693   7.383   2.769   1.207  0.0143 -0.2307 -0.3088
 2165SOL     H132694   7.378   2.733   1.118  1.4686 -1.6822  0.1718
 2165SOL     H232695   7.300   2.744   1.247  0.5051 -2.0097 -0.3753
 2166SOL    OH232696   4.981   0.333   0.889 -0.1906  0.1972  0.0712
 2166SOL     H132697   4.906   0.389   0.907 -0.3580 -0.3229  1.0174
 2166SOL     H232698   4.946   0.262   0.835 -0.8571 -1.2073  2.2755
 2167SOL    OH232699   4.676   1.642   6.571  0.0289  0.1345 -0.0865
 2167SOL     H132700   4.612   1.627   6.501  1.2944  1.7492 -1.6187
 2167SOL     H232701   4.640   1.717   6.619  0.1639  0.2883 -0.2249
 2168SOL    OH232702   2.984   6.559   7.695 -0.0450 -0.0831 -0.2050
 2168SOL     H132703   3.078   6.548   7.710  0.1246  0.8911 -0.5640
 2168SOL     H232704   2.948   6.471   7.707  0.5188  0.0404  2.6952
 2169SOL    OH232705   5.519   4.214   1.059 -0.3641  0.1245 -0.6703
 2169SOL     H132706   5.576   4.158   1.111  0.0954  1.6305  0.4751
 2169SOL     H232707   5.456   4.153   1.019  1.8815 -1.5458 -1.7928
 2170SOL    OH232708   7.244   6.447   7.895 -0.7094 -0.2233 -0.3510
 2170SOL     H132709   7.323   6.486   7.859  0.5391 -1.3447  1.0860
 2170SOL     H232710   7.186   6.436   7.820  1.0444 -0.6392 -1.6703
 2171SOL    OH232711   0.055   5.440   8.186  0.5107  0.1230 -0.6341
 2171SOL     H132712   0.090   5.511   8.133  0.9707 -0.8401 -1.6328
 2171SOL     H232713   0.065   5.361   8.132 -1.1552 -0.5195 -0.0566
 2172SOL    OH232714   5.780   5.385   6.273 -0.6645 -0.0703  0.2400
 2172SOL     H132715   5.736   5.411   6.192  0.7797  1.7737  0.0223
 2172SOL     H232716   5.711   5.342   6.324 -2.5573  2.1348 -0.3712
 2173SOL    OH232717   3.944   1.927   7.803 -0.4512  0.0898 -0.0029
 2173SOL     H132718   4.011   1.868   7.837  0.9532  1.4667 -0.2965
 2173SOL     H232719   3.883   1.939   7.875  0.4880  0.0628  0.8010
 2174SOL    OH232720   0.668   4.639   6.874 -0.1059  0.3257 -0.4084
 2174SOL     H132721   0.577   4.648   6.904  0.6494  0.1419  2.0185
 2174SOL     H232722   0.687   4.723   6.831 -1.2569  0.5744 -0.4566
 2175SOL    OH232723   6.577   7.632   0.774  0.9794  0.2045  0.1151
 2175SOL     H132724   6.623   7.709   0.807  0.3418  0.8071 -0.3790
 2175SOL     H232725   6.600   7.628   0.681  2.1240 -1.0164  0.4473
 2176SOL    OH232726   4.854   4.642   7.112  0.4776  0.4056  0.3575
 2176SOL     H132727   4.823   4.555   7.137  1.1957  0.1634  0.4179
 2176SOL     H232728   4.822   4.699   7.181 -1.5169  0.4881 -0.5889
 2177SOL    OH232729   5.327   5.559   0.410  0.1977  0.4099 -0.3133
 2177SOL     H132730   5.276   5.481   0.390  0.3137 -0.0159  0.9870
 2177SOL     H232731   5.264   5.631   0.407 -0.1331  0.1144 -0.4162
 2178SOL    OH232732   1.631   1.893   0.172 -0.6649  0.2875  0.1981
 2178SOL     H132733   1.642   1.803   0.202 -0.1645  0.5054  0.6732
 2178SOL     H232734   1.643   1.888   0.077  3.2502  0.4372  0.5856
 2179SOL    OH232735   7.446   1.970   0.065  0.8053  0.5820 -0.2554
 2179SOL     H132736   7.450   2.010  -0.022  0.0708 -0.5871 -0.8345
 2179SOL     H232737   7.537   1.948   0.085  0.8712  0.1001 -1.0793
 2180SOL    OH232738   5.765   1.565   6.780 -0.7448 -0.6799 -0.3592
 2180SOL     H132739   5.758   1.471   6.793 -0.4004 -0.7183 -0.4425
 2180SOL     H232740   5.728   1.604   6.859 -0.3457 -0.8882 -0.0713
 2181SOL    OH232741   3.083   3.130   2.578 -0.9209  0.3319 -0.1742
 2181SOL     H132742   3.066   3.221   2.604 -1.6572  0.1764 -0.0869
 2181SOL     H232743   3.172   3.113   2.606 -2.0985 -0.2342  3.4476
 2182SOL    OH232744   0.855   3.117   1.194 -0.0902 -0.1660  0.3450
 2182SOL     H132745   0.880   3.025   1.193 -1.6524 -0.6125  1.3479
 2182SOL     H232746   0.840   3.139   1.102 -0.3662 -1.0904  0.1668
 2183SOL    OH232747   7.948   0.489   2.483 -0.3369 -0.3978 -0.2518
 2183SOL     H132748   7.890   0.424   2.523  0.5616 -0.7573  0.4935
 2183SOL     H232749   7.915   0.573   2.515 -0.2832 -0.6173  0.3922
 2184SOL    OH232750   7.574   7.184   7.704  0.3138  0.2171 -0.1491
 2184SOL     H132751   7.539   7.257   7.653  0.8220  0.5429 -0.0334
 2184SOL     H232752   7.662   7.170   7.668  0.2229 -0.3329 -0.1619
 2185SOL    OH232753   5.395   6.992   1.841  0.0005  0.0328  0.1095
 2185SOL     H132754   5.400   7.018   1.749  0.6062 -0.0463  0.1165
 2185SOL     H232755   5.310   7.025   1.870 -0.9869 -1.5268 -0.9474
 2186SOL    OH232756   2.478   5.976   7.742  0.2778 -0.5176  0.2185
 2186SOL     H132757   2.538   6.033   7.694 -0.7202  1.1753  0.9133
 2186SOL     H232758   2.531   5.935   7.810  0.8763  0.1315  0.1436
 2187SOL    OH232759   0.303   2.725   1.277  0.1242  0.6295  0.3911
 2187SOL     H132760   0.294   2.728   1.182  1.9227  0.7587  0.2104
 2187SOL     H232761   0.216   2.698   1.308 -0.6436  1.1611 -1.2353
 2188SOL    OH232762   0.459   4.276   0.553  0.3004  0.2470 -0.2668
 2188SOL     H132763   0.481   4.368   0.567  0.5144 -0.0192  1.1447
 2188SOL     H232764   0.537   4.239   0.512  1.4062 -0.0277  2.0599
 2189SOL    OH232765   2.568   0.349   0.190 -0.1538  1.3229  0.5543
 2189SOL     H132766   2.510   0.390   0.126 -0.1605  1.8990  0.9213
 2189SOL     H232767   2.595   0.267   0.149 -1.4909  0.8860  0.5058
 2190SOL    OH232768   7.738   6.619   2.252  0.0148  0.1920 -0.1400
 2190SOL     H132769   7.644   6.604   2.247 -0.2976  1.8980  0.3059
 2190SOL     H232770   7.760   6.605   2.344 -0.0668  1.3063  0.0450
 2191SOL    OH232771   5.213   6.317   1.979 -0.3029  0.6202  0.5015
 2191SOL     H132772   5.256   6.382   1.924  2.6648 -0.6813  1.1905
 2191SOL     H232773   5.189   6.365   2.059  1.0072  1.1017  0.6161
 2192SOL    OH232774   1.901   1.218   0.655  0.2308 -0.0011  0.3884
 2192SOL     H132775   1.951   1.148   0.613  1.2914  2.1734 -2.0561
 2192SOL     H232776   1.968   1.276   0.692 -0.5992  0.8504  0.5674
 2193SOL    OH232777   6.773   4.185   0.972 -0.2301  0.3570  0.1927
 2193SOL     H132778   6.787   4.279   0.955 -0.1841  0.1126 -1.1453
 2193SOL     H232779   6.839   4.141   0.919 -0.2159 -0.4389  0.8661
 2194SOL    OH232780   0.993   0.582   0.067  0.2216  0.5198  0.2403
 2194SOL     H132781   0.966   0.598   0.157  1.5523  0.3914  0.6741
 2194SOL     H232782   1.081   0.621   0.061  1.0258 -1.3573 -0.3822
 2195SOL    OH232783   7.030   4.980   2.396  0.2983 -0.5713 -0.0337
 2195SOL     H132784   7.035   4.895   2.352 -0.6878 -0.8120  0.3031
 2195SOL     H232785   6.946   4.978   2.442 -1.6429  2.1046 -3.1786
 2196SOL    OH232786   1.657   5.807   1.876  0.0849 -0.0988  0.2857
 2196SOL     H132787   1.647   5.792   1.970 -1.4515 -0.6117  0.0569
 2196SOL     H232788   1.656   5.719   1.838 -3.7622  0.2166 -0.5868
 2197SOL    OH232789   7.693   2.978   0.449  0.1687  0.0385 -0.2215
 2197SOL     H132790   7.617   2.925   0.426  0.1056 -0.7675  1.7277
 2197SOL     H232791   7.662   3.035   0.519  0.7303  1.4067 -1.0638
 2198SOL    OH232792   2.819   3.543   1.282  0.2437  0.2931  0.3772
 2198SOL     H132793   2.737   3.546   1.331  0.1091  1.7893  0.0737
 2198SOL     H232794   2.882   3.507   1.345 -0.9914 -2.6860  0.0408
 2199SOL    OH232795   0.964   1.544   7.828 -0.2248 -0.1609 -0.3708
 2199SOL     H132796   1.013   1.623   7.847 -0.4946  0.0515 -0.5573
 2199SOL     H232797   0.927   1.517   7.911 -0.6920  0.2847 -0.4327
 2200SOL    OH232798   1.836   7.941   1.556 -0.8402  0.0809  0.4944
 2200SOL     H132799   1.845   7.964   1.648 -0.1563  2.8416 -0.2293
 2200SOL     H232800   1.926   7.941   1.522 -1.2469  1.1292 -0.6249
 2201SOL    OH232801   7.280   1.692   8.091 -0.3519 -0.3952  0.5871
 2201SOL     H132802   7.187   1.701   8.068 -0.3686 -0.4007  0.6556
 2201SOL     H232803   7.325   1.748   8.028 -0.5096  0.6892  1.4304
 2202SOL    OH232804   1.489   6.365   7.323  0.2778  0.0553 -0.1503
 2202SOL     H132805   1.513   6.303   7.254 -0.8903  0.7858 -1.2442
 2202SOL     H232806   1.397   6.345   7.342  0.5509 -0.0464  1.1044
 2203SOL    OH232807   5.404   3.596   0.033  0.0242  0.1933 -0.0538
 2203SOL     H132808   5.315   3.624   0.008  0.2489 -0.5931 -1.7886
 2203SOL     H232809   5.399   3.501   0.036  1.2432  0.0695 -1.8322
 2204SOL    OH232810   1.898   0.073   0.592 -0.1105  0.0338  0.2990
 2204SOL     H132811   1.844   0.124   0.653 -0.0873  0.6073 -0.1662
 2204SOL     H232812   1.892   0.119   0.509  0.1206 -0.5763 -0.0582
 2205SOL    OH232813   3.186   2.571   8.196 -0.3437 -0.1153 -0.2729
 2205SOL     H132814   3.129   2.647   8.181  0.0880 -0.1895 -2.4817
 2205SOL     H232815   3.218   2.548   8.109 -0.2267 -2.6644  0.4123
 2206SOL    OH232816   3.328   6.704   1.193  0.4587 -0.1472 -0.4049
 2206SOL     H132817   3.290   6.734   1.275  0.1203 -0.1673 -0.5518
 2206SOL     H232818   3.362   6.783   1.151 -1.0220  0.1466 -1.0986
 2207SOL    OH232819   5.396   6.952   7.920  0.4191  0.1831 -0.3434
 2207SOL     H132820   5.490   6.949   7.937  0.6709 -0.2097 -1.7425
 2207SOL     H232821   5.380   7.039   7.885  0.1735  0.4188  0.3402
 2208SOL    OH232822   5.386   3.369   0.908  0.1144  0.0520 -0.3848
 2208SOL     H132823   5.461   3.314   0.929  0.1511  0.7013  1.2705
 2208SOL     H232824   5.331   3.314   0.852  1.2268 -0.8484 -0.6236
 2209SOL    OH232825   6.799   6.270   6.748 -0.6136 -0.5141  0.4601
 2209SOL     H132826   6.882   6.236   6.714 -1.3436 -1.3733 -0.4725
 2209SOL     H232827   6.762   6.321   6.676 -0.2807  0.9975  1.3242
 2210SOL    OH232828   4.142   2.431   6.298  0.1231 -0.2560 -0.1504
 2210SOL     H132829   4.177   2.405   6.212  0.3955 -0.0753 -0.0959
 2210SOL     H232830   4.140   2.527   6.295  0.2593 -0.2446  0.0917
 2211SOL    OH232831   3.733   4.375   7.691 -0.6022  0.4330 -0.4529
 2211SOL     H132832   3.811   4.388   7.637  0.8308 -2.6881  0.7334
 2211SOL     H232833   3.767   4.340   7.773 -3.2773 -1.2960 -0.0406
 2212SOL    OH232834   5.211   1.746   7.731 -0.3379  0.3338  0.6113
 2212SOL     H132835   5.143   1.749   7.664  0.4900  0.2086 -0.2498
 2212SOL     H232836   5.253   1.661   7.719 -1.0538 -0.2560  2.1675
 2213SOL    OH232837   7.049   7.740   7.270 -0.0310 -0.8145  0.1445
 2213SOL     H132838   7.113   7.781   7.211  0.1950 -1.1942  0.1224
 2213SOL     H232839   6.983   7.807   7.283 -0.4422 -0.9533 -1.1060
 2214SOL    OH232840   7.987   4.784   6.668  0.0953 -0.8413 -0.3376
 2214SOL     H132841   7.914   4.793   6.729 -1.3839  0.6555 -2.2244
 2214SOL     H232842   7.945   4.765   6.584  2.0273 -2.1006 -1.0497
 2215SOL    OH232843   3.840   7.251   5.900 -0.1352 -0.0580 -0.5958
 2215SOL     H132844   3.813   7.184   5.962 -0.9947  1.4570  0.7146
 2215SOL     H232845   3.927   7.223   5.870  0.3156 -0.7980  1.3216
 2216SOL    OH232846   5.646   4.729   6.675 -0.0736  0.1715 -0.3437
 2216SOL     H132847   5.552   4.721   6.659  0.0544  0.8899 -1.5437
 2216SOL     H232848   5.669   4.650   6.725 -0.7848 -1.4424 -2.4986
 2217SOL    OH232849   4.879   0.730   1.254  0.3337 -0.1309  0.1699
 2217SOL     H132850   4.897   0.698   1.342  1.8918  1.8734  0.6063
 2217SOL     H232851   4.902   0.823   1.256  0.5532 -0.0786 -2.3955
 2218SOL    OH232852   4.783   7.101   2.260 -0.0642 -0.7098  0.8091
 2218SOL     H132853   4.842   7.159   2.212 -1.6277 -0.2660 -0.6103
 2218SOL     H232854   4.832   7.078   2.340  1.8493 -0.0392 -0.1375
 2219SOL    OH232855   1.617   0.109   1.841  0.0794 -0.0922  0.3168
 2219SOL     H132856   1.558   0.096   1.915 -0.5712 -1.4953 -0.4373
 2219SOL     H232857   1.632   0.204   1.839 -0.0653 -0.0148  2.0971
 2220SOL    OH232858   2.638   5.235   1.358 -0.7461  0.0527 -0.4862
 2220SOL     H132859   2.687   5.187   1.291 -0.9446  0.2140 -0.7485
 2220SOL     H232860   2.637   5.325   1.327 -0.3934  0.2225 -0.0043
 2221SOL    OH232861   2.169   7.689   6.766  0.2856 -0.5803 -0.1638
 2221SOL     H132862   2.150   7.615   6.708 -2.0768  0.7346 -1.1542
 2221SOL     H232863   2.119   7.671   6.845 -0.3456 -0.0533 -0.4307
 2222SOL    OH232864   1.222   5.470   7.363  0.5409 -0.0805  0.2406
 2222SOL     H132865   1.274   5.397   7.328  1.8501  2.1425 -2.7237
 2222SOL     H232866   1.155   5.486   7.296 -1.5950 -0.3976  2.2308
 2223SOL    OH232867   6.803   4.998   7.314  0.2321  0.1727  0.3152
 2223SOL     H132868   6.871   4.958   7.367  1.5416 -1.1003 -2.3034
 2223SOL     H232869   6.726   4.943   7.328  0.1839  0.6022  1.8797
 2224SOL    OH232870   1.965   3.718   0.071  0.5738 -0.5080 -0.4531
 2224SOL     H132871   1.886   3.665   0.086  0.7782  0.0268  2.9347
 2224SOL     H232872   1.935   3.808   0.079  0.9963 -0.1726 -2.2627
 2225SOL    OH232873   7.928   3.355   7.507 -0.0575 -0.0825  0.5687
 2225SOL     H132874   7.937   3.449   7.493 -2.6079  0.2009  0.5499
 2225SOL     H232875   7.993   3.334   7.574 -0.7247  2.0685  1.9535
 2226SOL    OH232876   6.333   6.951   7.317  0.1043 -0.0921  0.3779
 2226SOL     H132877   6.263   6.966   7.254  1.4738 -0.6317 -1.3132
 2226SOL     H232878   6.322   6.859   7.343  0.2483 -0.2007  0.0498
 2227SOL    OH232879   7.743   6.877   1.477 -0.1769  0.4257 -0.2754
 2227SOL     H132880   7.808   6.807   1.488 -1.0405 -0.1980  1.1101
 2227SOL     H232881   7.757   6.910   1.389  1.9309  0.2144 -0.0354
 2228SOL    OH232882   2.700   6.787   0.799  0.3106  0.1482  0.0326
 2228SOL     H132883   2.722   6.716   0.860  1.1696 -2.2643 -2.9162
 2228SOL     H232884   2.777   6.844   0.800  1.7140 -1.6272 -1.0911
 2229SOL    OH232885   0.224   1.012   1.626  0.4282 -0.1120  0.5221
 2229SOL     H132886   0.163   1.018   1.700  0.5110 -0.1486  0.5945
 2229SOL     H232887   0.310   1.004   1.667  0.3007 -2.2433  0.4712
 2230SOL    OH232888   0.152   0.307   5.868 -0.1790 -0.4629  0.0902
 2230SOL     H132889   0.065   0.342   5.887 -0.1100  0.0682 -0.5533
 2230SOL     H232890   0.212   0.380   5.886 -0.0033 -0.3385 -0.9517
 2231SOL    OH232891   1.632   1.815   8.187 -0.3363 -0.9056  0.3823
 2231SOL     H132892   1.688   1.885   8.154  0.1662 -1.5387 -0.1093
 2231SOL     H232893   1.561   1.810   8.123 -0.1581 -1.1133  0.1977
 2232SOL    OH232894   0.936   1.930   0.552  0.4119 -1.0620 -0.2902
 2232SOL     H132895   0.948   1.909   0.460 -1.2014  2.6443 -1.4479
 2232SOL     H232896   0.844   1.955   0.559  0.7390 -0.3886  2.1191
 2233SOL    OH232897   6.362   5.197   0.202  0.1394 -1.2530 -0.2090
 2233SOL     H132898   6.452   5.168   0.217 -0.0063 -1.2312  0.7157
 2233SOL     H232899   6.355   5.282   0.246  0.1449 -0.4536 -1.7043
 2234SOL    OH232900   7.033   3.627   1.635 -0.0982 -0.6088 -0.3927
 2234SOL     H132901   7.010   3.593   1.721 -0.3093 -1.7257 -0.8835
 2234SOL     H232902   6.953   3.620   1.584  0.5304 -1.7609 -1.2396
 2235SOL    OH232903   5.192   0.934   7.713 -0.1426  0.0204  0.1905
 2235SOL     H132904   5.171   0.882   7.790 -0.5383 -0.0502  0.0355
 2235SOL     H232905   5.278   0.972   7.732  0.5871 -1.4564 -0.0879
 2236SOL    OH232906   7.656   5.511   0.296  0.2169 -0.2765  0.2498
 2236SOL     H132907   7.721   5.469   0.240  0.0505  3.0791 -2.5786
 2236SOL     H232908   7.601   5.438   0.327  3.0011 -2.7025 -0.2999
 2237SOL    OH232909   0.043   6.456   0.754  0.1422  0.1280  0.2554
 2237SOL     H132910   0.094   6.380   0.726 -1.2279  0.1015 -2.2915
 2237SOL     H232911  -0.046   6.437   0.727 -0.7930  1.2754  2.4435
 2238SOL    OH232912   7.897   1.616   1.798  0.1777 -0.0525 -0.4609
 2238SOL     H132913   7.914   1.531   1.757  0.2422 -0.2954  0.0773
 2238SOL     H232914   7.945   1.614   1.880 -0.4187  0.2220 -0.0988
 2239SOL    OH232915   1.809   1.603   0.611  0.4377 -0.0441 -0.2283
 2239SOL     H132916   1.844   1.636   0.529  0.7431  1.2736  0.4128
 2239SOL     H232917   1.785   1.512   0.593  1.2027  0.0147 -1.5523
 2240SOL    OH232918   5.282   1.474   7.814 -0.0645  0.2888 -0.0926
 2240SOL     H132919   5.333   1.417   7.757  1.0668  0.8926  0.3108
 2240SOL     H232920   5.345   1.510   7.877 -0.8434  1.5664 -0.0038
 2241SOL    OH232921   7.723   4.696   0.769 -0.2706  0.5988  1.3838
 2241SOL     H132922   7.798   4.685   0.827 -0.1997 -1.2787  0.9515
 2241SOL     H232923   7.722   4.617   0.716 -0.9640  1.8166 -0.4642
 2242SOL    OH232924   4.831   1.723   0.135  0.3031 -0.1432  0.3320
 2242SOL     H132925   4.822   1.638   0.178 -2.0589 -0.2912 -0.3639
 2242SOL     H232926   4.862   1.701   0.047  0.7171 -0.2074  0.4950
 2243SOL    OH232927   2.740   2.336   7.903  0.1212 -0.1514 -0.1082
 2243SOL     H132928   2.798   2.407   7.875  2.6644 -2.3300 -0.4912
 2243SOL     H232929   2.685   2.376   7.971  2.5931  1.7677  0.8419
 2244SOL    OH232930   0.763   7.011   1.805  0.3921 -0.6302 -0.1051
 2244SOL     H132931   0.711   7.024   1.726 -0.2745 -2.0591  0.0988
 2244SOL     H232932   0.850   6.988   1.772  0.1889 -0.9549 -0.4162
 2245SOL    OH232933   6.020   2.884   0.769 -0.1007 -0.2294 -0.0081
 2245SOL     H132934   5.998   2.889   0.862  1.3929 -1.7534  0.4613
 2245SOL     H232935   6.103   2.837   0.767 -0.8935 -1.5937 -2.2286
 2246SOL    OH232936   7.496   5.276   2.434 -0.1911  0.2898  0.2811
 2246SOL     H132937   7.476   5.369   2.440  0.4947  0.2973  2.9605
 2246SOL     H232938   7.429   5.241   2.376 -0.6566  2.3723 -0.4864
 2247SOL    OH232939   2.679   3.636   7.531  0.0620 -0.3938 -0.8106
 2247SOL     H132940   2.701   3.567   7.469 -0.8412 -0.6138 -0.8979
 2247SOL     H232941   2.595   3.608   7.569  0.7658 -0.4420  0.7559
 2248SOL    OH232942   5.317   6.254   1.556 -0.5290  0.4228  0.0488
 2248SOL     H132943   5.326   6.205   1.474  0.6568  1.3113 -0.3535
 2248SOL     H232944   5.349   6.341   1.536 -1.2873  0.9668  1.1675
 2249SOL    OH232945   5.544   6.332   0.437  0.2625 -0.0272  0.0379
 2249SOL     H132946   5.625   6.381   0.427  1.1767 -1.4285  0.4329
 2249SOL     H232947   5.483   6.374   0.377  1.3270  0.9360 -0.3836
 2250SOL    OH232948   0.499   3.047   1.175 -0.5316 -0.0518 -0.1157
 2250SOL     H132949   0.480   3.000   1.256  0.1142 -0.7487 -0.3653
 2250SOL     H232950   0.562   3.114   1.200 -0.4309 -0.1830 -0.0198
 2251SOL    OH232951   0.447   1.662   7.170  0.0309  0.1677 -0.0206
 2251SOL     H132952   0.512   1.674   7.100  0.9969  3.2360  1.3324
 2251SOL     H232953   0.376   1.721   7.147 -1.5971 -1.9691 -0.6108
 2252SOL    OH232954   7.215   4.053   6.967  0.4982 -0.2785  0.1651
 2252SOL     H132955   7.208   3.958   6.958  1.8176 -0.2550 -1.2933
 2252SOL     H232956   7.252   4.083   6.884 -2.3685  1.8237 -0.4497
 2253SOL    OH232957   5.976   4.382   6.658 -0.0592  0.1781 -0.1708
 2253SOL     H132958   5.930   4.315   6.708 -0.1433  0.2328 -0.1759
 2253SOL     H232959   6.059   4.341   6.633 -0.1286  0.0618 -0.2106
 2254SOL    OH232960   3.868   5.167   6.910  0.0126  0.4410  0.2707
 2254SOL     H132961   3.955   5.166   6.869  0.6096  0.6679  1.5263
 2254SOL     H232962   3.871   5.097   6.975 -0.3432  1.2270  1.1410
 2255SOL    OH232963   4.070   2.864   0.560 -0.3058  0.2151  0.4043
 2255SOL     H132964   4.136   2.884   0.494  1.0008 -0.7907  1.3685
 2255SOL     H232965   4.014   2.942   0.563  2.0298  1.9192  0.9964
 2256SOL    OH232966   7.457   3.568   7.824 -0.2668 -0.5470 -0.0475
 2256SOL     H132967   7.444   3.645   7.769 -0.3421 -0.2376  0.4036
 2256SOL     H232968   7.477   3.603   7.911 -0.8783 -1.0324  0.2922
 2257SOL    OH232969   1.013   7.144   7.875 -0.0895 -0.3315  0.0751
 2257SOL     H132970   0.930   7.161   7.830 -0.3564 -0.2786  0.5838
 2257SOL     H232971   1.052   7.071   7.827  0.0217  0.2765 -0.7606
 2258SOL    OH232972   5.676   3.980   2.025 -0.9862 -0.5750  0.0333
 2258SOL     H132973   5.760   4.025   2.015 -1.0362 -0.8643 -1.9495
 2258SOL     H232974   5.652   3.955   1.936 -2.4987 -1.7361  0.7476
 2259SOL    OH232975   2.646   7.525   8.036 -0.5613  0.5192  0.4173
 2259SOL     H132976   2.649   7.601   8.094  1.0832  1.3886 -0.7765
 2259SOL     H232977   2.672   7.451   8.091  0.0804  1.1884  1.0231
 2260SOL    OH232978   3.724   2.679   7.926  0.6088 -0.1948 -0.2584
 2260SOL     H132979   3.781   2.603   7.918 -0.0283 -0.9087  1.7786
 2260SOL     H232980   3.784   2.753   7.933  1.2737 -0.8272  0.8508
 2261SOL    OH232981   1.295   1.294   6.944 -0.1700 -0.3908 -0.2735
 2261SOL     H132982   1.327   1.311   6.855 -1.2867 -0.0977 -0.6284
 2261SOL     H232983   1.275   1.201   6.945 -0.3580 -0.3522 -0.3972
 2262SOL    OH232984   2.012   2.849   0.913 -0.4707 -0.4236  0.4606
 2262SOL     H132985   2.057   2.923   0.872  0.4998 -1.9900 -1.4118
 2262SOL     H232986   2.060   2.835   0.995 -0.3688  0.7189  0.6067
 2263SOL    OH232987   1.687   6.991   7.115 -0.0112 -0.1096 -0.0818
 2263SOL     H132988   1.670   7.074   7.160 -0.5325 -0.0962 -0.2894
 2263SOL     H232989   1.674   7.011   7.022 -2.5248 -0.9672  0.0388
 2264SOL    OH232990   6.105   3.879   6.242  0.2205  0.6417  0.5117
 2264SOL     H132991   6.120   3.925   6.159 -1.3294 -0.8591 -0.6351
 2264SOL     H232992   6.121   3.787   6.221 -1.2651  0.1217  1.5847
 2265SOL    OH232993   7.288   1.386   2.447 -0.0546  0.5920  0.0237
 2265SOL     H132994   7.235   1.316   2.408  0.0029  0.8020 -0.4307
 2265SOL     H232995   7.306   1.446   2.375 -1.2437  1.7804  0.6893
 2266SOL    OH232996   6.560   2.741   5.853  0.0755  0.0856  0.3710
 2266SOL     H132997   6.592   2.766   5.766  3.6365 -2.8666  0.6606
 2266SOL     H232998   6.490   2.678   5.835 -0.9610  1.4168 -0.3299
 2267SOL    OH232999   5.372   4.891   1.898 -0.2786 -0.0827  0.2089
 2267SOL     H133000   5.454   4.847   1.876 -0.8335 -0.5769 -0.8938
 2267SOL     H233001   5.314   4.872   1.824 -1.6569 -0.4439  1.3592
 2268SOL    OH233002   2.677   2.293   1.326  0.4023  0.3952  0.1665
 2268SOL     H133003   2.655   2.383   1.302  1.5297  0.7735  0.5232
 2268SOL     H233004   2.618   2.239   1.273 -1.7747  1.3712  1.4793
 2269SOL    OH233005   1.365   2.753   1.755 -0.3432 -0.6252  0.4679
 2269SOL     H133006   1.350   2.665   1.720 -0.4192 -1.0366  1.5102
 2269SOL     H233007   1.374   2.740   1.850  2.5360  0.1015  0.3348
 2270SOL    OH233008   4.707   0.668   7.982  0.2667  0.4726 -0.6313
 2270SOL     H133009   4.736   0.686   8.071 -0.5839 -0.2021 -0.2096
 2270SOL     H233010   4.722   0.574   7.970 -1.2838  0.2116 -0.5667
 2271SOL    OH233011   7.013   4.924   7.570  0.0935 -0.5127 -0.1624
 2271SOL     H133012   7.021   4.986   7.642 -0.4041  2.2107 -2.4007
 2271SOL     H233013   7.096   4.930   7.523 -1.6835  2.0736 -3.1482
 2272SOL    OH233014   0.288   0.809   7.947  0.6851 -0.3084  0.6730
 2272SOL     H133015   0.207   0.762   7.965 -0.5493  1.2956 -0.5203
 2272SOL     H233016   0.285   0.886   8.004 -0.1194  1.3357 -1.4968
 2273SOL    OH233017   2.884   7.898   1.433  0.5372 -0.2937  0.1362
 2273SOL     H133018   2.957   7.906   1.495  1.5400  1.4888 -1.2159
 2273SOL     H233019   2.811   7.867   1.485  1.4130  0.9926  2.1671
 2274SOL    OH233020   6.518   7.318   7.326  0.1455  0.3783  0.0263
 2274SOL     H133021   6.588   7.350   7.270  0.8023 -0.3354  0.4354
 2274SOL     H233022   6.458   7.274   7.267  1.2705 -1.1195 -0.0052
 2275SOL    OH233023   1.171   5.597   6.656  0.1810 -0.7826 -0.4362
 2275SOL     H133024   1.132   5.518   6.693 -2.3162  0.1283 -1.0228
 2275SOL     H233025   1.167   5.585   6.562 -0.0732 -0.0425 -0.5253
 2276SOL    OH233026   2.851   6.065   0.478  0.0797 -0.0599  0.2664
 2276SOL     H133027   2.926   6.048   0.534  1.1448  2.1965 -0.4556
 2276SOL     H233028   2.828   6.156   0.494 -0.1023  0.4069 -2.3398
 2277SOL    OH233029   2.549   3.882   7.637 -0.5979  0.1903  0.2133
 2277SOL     H133030   2.597   3.962   7.659  0.7734 -0.0330 -1.7577
 2277SOL     H233031   2.615   3.824   7.600 -1.6804 -1.6761  1.1585
 2278SOL    OH233032   7.268   3.125   1.404  0.3366  0.0955  0.2939
 2278SOL     H133033   7.301   3.091   1.488  0.2938  0.8888  0.6355
 2278SOL     H233034   7.334   3.188   1.376  0.7157 -0.7092 -0.6418
 2279SOL    OH233035   5.641   4.589   8.126 -0.1656  0.7330  0.4507
 2279SOL     H133036   5.554   4.551   8.136  0.2617 -0.2132  0.6064
 2279SOL     H233037   5.699   4.514   8.115  0.3413  1.4447 -1.9494
 2280SOL    OH233038   6.223   7.056   0.922 -0.1009  0.2419 -0.0272
 2280SOL     H133039   6.207   6.992   0.992 -1.5690  0.3755 -0.2184
 2280SOL     H233040   6.136   7.090   0.901  0.2224 -0.4155 -2.5191
 2281SOL    OH233041   3.878   1.439   6.578 -0.7362  0.0251  0.1054
 2281SOL     H133042   3.912   1.452   6.489  3.1553 -0.1967  1.4855
 2281SOL     H233043   3.820   1.363   6.570  1.3496 -1.4416 -1.8340
 2282SOL    OH233044   0.204   5.528   1.682  0.1409  0.9798  0.3830
 2282SOL     H133045   0.224   5.519   1.588  0.3454 -0.2545  0.5411
 2282SOL     H233046   0.109   5.526   1.686  0.1606 -0.8118  0.3678
 2283SOL    OH233047   6.496   4.597   2.095  0.1932  0.1940  0.2450
 2283SOL     H133048   6.426   4.565   2.153  1.6017  0.7940  2.3460
 2283SOL     H233049   6.525   4.520   2.047 -0.6251 -0.4339  0.7462
 2284SOL    OH233050   4.280   6.005   6.243  0.6624  0.0843 -0.0010
 2284SOL     H133051   4.196   6.043   6.270  1.3689  1.4611  0.3086
 2284SOL     H233052   4.277   5.915   6.276 -0.5773  0.1909  0.2211
 2285SOL    OH233053   4.034   4.239   8.171  0.4997  0.4491  0.3348
 2285SOL     H133054   4.050   4.152   8.207  0.2981  0.7917  1.2534
 2285SOL     H233055   4.122   4.276   8.159  0.5483  0.5109  0.8964
 2286SOL    OH233056   5.985   2.311   0.987 -0.4089  0.0106 -0.7090
 2286SOL     H133057   5.930   2.320   0.909 -1.8050 -1.9699 -0.0141
 2286SOL     H233058   5.927   2.335   1.060  0.0810 -0.6859 -0.0819
 2287SOL    OH233059   6.691   5.434   0.083  0.2814 -0.1183  0.3570
 2287SOL     H133060   6.655   5.500   0.143 -1.9264 -1.8734  1.0490
 2287SOL     H233061   6.630   5.434   0.009  1.0023 -0.4675 -0.2434
 2288SOL    OH233062   6.483   1.703   1.080 -0.1218  0.5690  0.1604
 2288SOL     H133063   6.400   1.712   1.126  0.2302  1.3932  0.6451
 2288SOL     H233064   6.472   1.624   1.027 -0.6744 -0.2045  1.3779
 2289SOL    OH233065   7.727   3.216   1.982  0.2506 -0.3625  0.4627
 2289SOL     H133066   7.804   3.267   1.957  0.4940 -0.5063  0.9278
 2289SOL     H233067   7.684   3.195   1.899  0.1031  0.6735  0.2673
 2290SOL    OH233068   4.947   2.346   7.850  0.0815  0.0163  0.1457
 2290SOL     H133069   5.012   2.415   7.838 -0.1879 -0.0686 -1.8368
 2290SOL     H233070   4.988   2.286   7.913  1.3630  0.6406 -0.0688
 2291SOL    OH233071   0.581   3.065   2.017  0.2196  0.1765  0.1972
 2291SOL     H133072   0.626   3.084   1.935 -0.5164  0.0047 -0.2487
 2291SOL     H233073   0.490   3.049   1.992  0.3080 -1.4953  0.8443
 2292SOL    OH233074   3.050   3.275   1.546 -0.3280 -0.0187 -0.1105
 2292SOL     H133075   2.980   3.270   1.481 -2.0556  0.4664  1.6614
 2292SOL     H233076   3.051   3.367   1.573  0.1328 -0.2858  0.8029
 2293SOL    OH233077   5.885   3.363   1.385  0.8880  0.4676 -0.1967
 2293SOL     H133078   5.934   3.443   1.363  1.7480 -0.3737 -1.4290
 2293SOL     H233079   5.861   3.374   1.476  1.4141  1.9375 -0.2248
 2294SOL    OH233080   4.895   7.253   0.666 -0.0473  0.1826 -0.4959
 2294SOL     H133081   4.824   7.199   0.632 -0.0176 -0.6266  0.7092
 2294SOL     H233082   4.917   7.312   0.594 -0.6085 -0.8904 -1.5513
 2295SOL    OH233083   0.179   7.136   0.195  0.6730  0.2260 -0.1775
 2295SOL     H133084   0.159   7.077   0.268  2.3329  1.0912  1.0133
 2295SOL     H233085   0.263   7.176   0.219  0.7211  1.3157 -2.0706
 2296SOL    OH233086   4.286   1.889   1.095 -0.1925 -0.0395 -0.0857
 2296SOL     H133087   4.335   1.934   1.164 -2.0832  0.3980  1.0138
 2296SOL     H233088   4.204   1.938   1.088 -0.9738 -1.4490 -1.0739
 2297SOL    OH233089   4.821   2.536   0.413 -0.0791 -0.4063  0.6431
 2297SOL     H133090   4.821   2.555   0.319 -0.3089 -0.8339  0.5525
 2297SOL     H233091   4.912   2.517   0.434  0.3099  1.7067  0.9349
 2298SOL    OH233092   1.295   5.766   1.233  0.3642 -0.3545  0.0018
 2298SOL     H133093   1.325   5.806   1.315  2.4727  0.3228 -1.0569
 2298SOL     H233094   1.250   5.686   1.260  0.6741  0.0755  1.8393
 2299SOL    OH233095   1.186   4.919   0.676  0.9035  0.4540 -0.4921
 2299SOL     H133096   1.255   4.981   0.655 -0.0312  1.5509 -0.3906
 2299SOL     H233097   1.157   4.886   0.591  1.2730  0.3006 -0.5594
 2300SOL    OH233098   7.784   3.049   2.206 -0.8503  0.6442  0.0967
 2300SOL     H133099   7.849   2.986   2.176 -2.4576 -0.2853 -1.5250
 2300SOL     H233100   7.788   3.120   2.142 -2.1263  0.1099 -0.5859
 2301SOL    OH233101   3.248   5.901   0.051 -0.0462 -0.2733  0.2796
 2301SOL     H133102   3.208   5.964   0.110  1.0134  0.3967  0.2951
 2301SOL     H233103   3.281   5.832   0.108 -0.6177 -0.5221  0.3149
 2302SOL    OH233104   3.640   6.128   7.321 -0.0429  0.5974  0.0216
 2302SOL     H133105   3.675   6.057   7.266 -1.6365  0.4485 -0.8246
 2302SOL     H233106   3.602   6.083   7.397 -1.2908  0.5113 -0.6433
 2303SOL    OH233107   4.220   6.601   5.889  0.1929 -0.2669  0.7785
 2303SOL     H133108   4.308   6.631   5.910  0.3490 -0.3057  0.1851
 2303SOL     H233109   4.169   6.682   5.880  0.7508 -0.1342 -1.4193
 2304SOL    OH233110   7.072   7.027   1.762 -0.3591 -0.0006 -0.1469
 2304SOL     H133111   7.032   7.050   1.846  0.2412 -0.3440  0.2352
 2304SOL     H233112   7.094   7.111   1.722  0.2853  0.1362  0.4943
 2305SOL    OH233113   7.334   0.515   0.682 -0.0339 -0.7216  0.6179
 2305SOL     H133114   7.334   0.468   0.598  2.5450 -0.0816  0.2188
 2305SOL     H233115   7.257   0.571   0.678  1.2084  0.8666 -2.2389
 2306SOL    OH233116   4.218   7.638   0.729  0.1876  0.4761  0.2182
 2306SOL     H133117   4.194   7.683   0.648  0.0120 -0.0233 -0.0121
 2306SOL     H233118   4.312   7.654   0.739  0.6943 -1.4177 -1.3290
 2307SOL    OH233119   4.316   1.090   5.771  0.0111  0.0513 -0.1807
 2307SOL     H133120   4.267   1.014   5.739  2.5090 -1.4692 -0.5292
 2307SOL     H233121   4.303   1.157   5.704  0.0028 -0.9986 -1.2573
 2308SOL    OH233122   1.149   1.820   2.777  0.1565 -0.0365  0.0387
 2308SOL     H133123   1.212   1.786   2.840 -0.0905  0.0931  0.3588
 2308SOL     H233124   1.066   1.777   2.800  0.2165 -0.5176 -0.6409
 2309SOL    OH233125   1.775   3.528   1.236 -0.6022 -0.1494  0.1321
 2309SOL     H133126   1.867   3.523   1.261 -0.5636  0.8731  0.2128
 2309SOL     H233127   1.733   3.573   1.308 -1.4453 -1.9019  0.7683
 2310SOL    OH233128   6.218   0.404   7.051 -0.1057  0.2421 -0.3315
 2310SOL     H133129   6.263   0.319   7.049  0.2107  0.4178 -0.5748
 2310SOL     H233130   6.269   0.460   6.994 -1.4386  0.0391 -1.7746
 2311SOL    OH233131   1.939   0.331   0.894  0.2877 -0.2016  0.1606
 2311SOL     H133132   1.868   0.300   0.838 -0.7478  0.8932  0.8523
 2311SOL     H233133   2.018   0.322   0.840 -0.6231  0.3948 -1.2915
 2312SOL    OH233134   5.427   3.459   1.430  0.0563 -0.2169 -0.0750
 2312SOL     H133135   5.412   3.538   1.378  1.2897  0.7219  0.9431
 2312SOL     H233136   5.440   3.492   1.519  3.1804 -1.3267 -0.0648
 2313SOL    OH233137   5.011   0.004   1.052 -0.2682 -0.0274 -0.2417
 2313SOL     H133138   4.992   0.014   0.958  0.8338 -1.4074 -0.6384
 2313SOL     H233139   5.100   0.038   1.061  0.5306 -2.0943 -0.1569
 2314SOL    OH233140   6.757   7.824   1.756  0.0804 -0.1150  0.1090
 2314SOL     H133141   6.837   7.784   1.721  0.3893  1.0332 -0.5365
 2314SOL     H233142   6.704   7.844   1.679  0.7940  2.5014  0.2457
 2315SOL    OH233143   1.370   6.579   7.489  0.1775 -0.2464  0.3069
 2315SOL     H133144   1.380   6.509   7.554  1.6316  0.8298  1.2731
 2315SOL     H233145   1.415   6.547   7.411  2.5359  0.3632  1.3615
 2316SOL    OH233146   7.844   2.127   8.229  0.4581 -0.1023  0.1443
 2316SOL     H133147   7.937   2.108   8.235  0.4181  0.2535  2.4824
 2316SOL     H233148   7.803   2.064   8.289 -0.4724  1.8065  1.5773
 2317SOL    OH233149   1.340   6.967   6.215  0.3374  0.3181 -0.2136
 2317SOL     H133150   1.357   7.007   6.301 -2.6600  1.8834 -0.2874
 2317SOL     H233151   1.427   6.956   6.177  1.6161  1.2296  2.3009
 2318SOL    OH233152   2.912   5.652   6.772 -0.2047  0.3213  0.1217
 2318SOL     H133153   2.946   5.563   6.776  1.4676  0.9496  0.0145
 2318SOL     H233154   2.989   5.709   6.779 -1.1570  1.7609 -0.6461
 2319SOL    OH233155   1.046   5.993   6.921  0.2890 -0.0223 -0.2497
 2319SOL     H133156   1.051   6.007   6.827  0.2576  1.7651 -0.0093
 2319SOL     H233157   1.109   5.923   6.938  1.3501  0.6154 -1.4144
 2320SOL    OH233158   4.484   4.341   0.947 -0.3497 -0.3355 -0.0502
 2320SOL     H133159   4.459   4.414   0.890 -0.9893 -0.1985  0.3999
 2320SOL     H233160   4.442   4.265   0.907  2.5766 -0.9492 -2.0979
 2321SOL    OH233161   1.420   2.059   1.831  0.0958  0.7570 -0.1944
 2321SOL     H133162   1.435   2.015   1.748 -1.3924  0.5528 -0.3592
 2321SOL     H233163   1.506   2.058   1.874  0.4046 -1.0430 -0.8057
 2322SOL    OH233164   4.344   1.129   0.806  0.3696  0.1234  0.1107
 2322SOL     H133165   4.259   1.089   0.787 -0.2444  2.1806 -1.7884
 2322SOL     H233166   4.407   1.076   0.758 -0.1610  0.0923 -0.5689
 2323SOL    OH233167   0.659   1.440   8.239  0.5177  0.1837 -0.4245
 2323SOL     H133168   0.588   1.497   8.212 -0.8122 -1.2781 -0.1002
 2323SOL     H233169   0.714   1.494   8.296 -2.0054  0.4782  1.8144
 2324SOL    OH233170   7.442   3.033   0.730 -0.0617 -0.0784  0.2482
 2324SOL     H133171   7.535   3.043   0.749 -0.1073  0.5942  0.1199
 2324SOL     H233172   7.403   3.117   0.754 -0.2754  0.4631 -1.8831
 2325SOL    OH233173   4.798   1.576   2.044 -0.4224 -0.3930 -0.2332
 2325SOL     H133174   4.754   1.592   1.960 -1.1326 -0.9496  0.0276
 2325SOL     H233175   4.790   1.481   2.057 -2.0211 -0.0633  1.3902
 2326SOL    OH233176   5.037   3.312   1.914  0.0995 -0.3111  0.1461
 2326SOL     H133177   5.131   3.332   1.914  0.3551 -1.4384 -0.1639
 2326SOL     H233178   4.998   3.378   1.857  1.0476 -1.2318 -1.6236
 2327SOL    OH233179   7.509   4.240   7.924  0.8264 -0.3543  0.0262
 2327SOL     H133180   7.547   4.302   7.985  2.7177 -1.6826  0.2463
 2327SOL     H233181   7.580   4.218   7.864 -0.7423  0.2313 -2.1099
 2328SOL    OH233182   6.007   7.820   6.413 -0.0715  0.4294 -0.6832
 2328SOL     H133183   6.004   7.779   6.326  0.1184  0.0681 -0.5212
 2328SOL     H233184   6.062   7.897   6.401 -0.1633  0.4565 -0.9204
 2329SOL    OH233185   7.325   4.105   0.726  0.6079  0.4322  0.0879
 2329SOL     H133186   7.306   4.125   0.817 -3.4134 -0.4613 -0.4691
 2329SOL     H233187   7.301   4.185   0.679 -1.8419 -0.6764 -0.6278
 2330SOL    OH233188   7.618   4.629   7.018  0.5516  0.0236  1.0795
 2330SOL     H133189   7.593   4.560   7.079 -0.9765 -0.0167  0.4459
 2330SOL     H233190   7.554   4.699   7.034  0.2987  0.1142 -0.2768
 2331SOL    OH233191   5.743   0.524   7.163 -0.2271 -0.1741  0.0136
 2331SOL     H133192   5.687   0.446   7.163  1.5370 -1.5477 -2.9508
 2331SOL     H233193   5.700   0.584   7.102 -0.3701  0.2598  0.5362
 2332SOL    OH233194   5.274   7.893   6.838 -0.0419  0.6461 -0.3749
 2332SOL     H133195   5.281   7.821   6.901 -0.3733  0.2786 -0.7523
 2332SOL     H233196   5.279   7.973   6.891  0.9489  0.3462 -0.0175
 2333SOL    OH233197   4.220   5.165   1.072 -0.3994 -0.2375 -0.2224
 2333SOL     H133198   4.176   5.225   1.012 -4.4930 -1.6442  1.1791
 2333SOL     H233199   4.246   5.091   1.017 -3.3621 -1.1384 -0.5171
 2334SOL    OH233200   2.756   7.477   6.318  0.0638 -0.2981 -0.8978
 2334SOL     H133201   2.705   7.437   6.247 -0.8016 -0.1904 -0.3482
 2334SOL     H233202   2.825   7.526   6.273 -0.8018  0.2213 -1.6995
 2335SOL    OH233203   7.686   0.928   7.134 -0.1232 -0.3848  0.2221
 2335SOL     H133204   7.728   0.953   7.216  0.4482  1.5040 -0.6300
 2335SOL     H233205   7.731   0.979   7.067 -1.3597 -1.0416 -1.1358
 2336SOL    OH233206   1.602   1.429   7.683  0.3979  0.4286 -0.3574
 2336SOL     H133207   1.674   1.403   7.625  2.2934  1.1089  1.6377
 2336SOL     H233208   1.556   1.347   7.703  0.9068 -0.0794 -1.2677
 2337SOL    OH233209   5.407   4.057   0.778 -0.2798  0.4862 -0.1671
 2337SOL     H133210   5.327   4.021   0.741  0.6398  0.3162 -2.0808
 2337SOL     H233211   5.447   4.107   0.706  2.2291 -0.9396  0.1581
 2338SOL    OH233212   4.436   3.567   1.964 -0.3818 -0.1176 -0.1128
 2338SOL     H133213   4.426   3.510   2.041 -1.2684  1.0566  0.6725
 2338SOL     H233214   4.429   3.655   2.000 -0.7183  0.4418 -1.5500
 2339SOL    OH233215   0.418   5.049   6.785  0.4443  0.5860  0.2246
 2339SOL     H133216   0.508   5.017   6.797  0.5671  0.5741 -0.7031
 2339SOL     H233217   0.365   4.969   6.783  0.4639  0.5702  0.3005
 2340SOL    OH233218   3.523   0.731   0.950  0.1929  0.0976 -0.0764
 2340SOL     H133219   3.440   0.733   0.902  0.4395 -0.1774 -0.5213
 2340SOL     H233220   3.543   0.638   0.958  0.2077  0.1509  0.4625
 2341SOL    OH233221   4.707   7.026   7.515  0.2910  0.1704 -0.4257
 2341SOL     H133222   4.684   6.935   7.502 -0.2757  0.5420 -2.1095
 2341SOL     H233223   4.729   7.059   7.428 -1.6662  2.2128 -0.2195
 2342SOL    OH233224   0.857   2.021   8.076 -0.1238  0.8320  0.2280
 2342SOL     H133225   0.847   1.949   8.137  0.8172  0.8514  0.4124
 2342SOL     H233226   0.788   2.007   8.011 -0.4188  0.1888  0.6729
 2343SOL    OH233227   1.556   5.795   7.888 -0.6198 -0.5821  0.4705
 2343SOL     H133228   1.484   5.733   7.879 -1.2969  0.4099 -0.9421
 2343SOL     H233229   1.602   5.792   7.804  0.7731 -0.9150  1.2152
 2344SOL    OH233230   1.319   7.073   6.476 -0.5309  0.0858 -0.0697
 2344SOL     H133231   1.333   6.982   6.501 -0.9950  0.4968  1.7644
 2344SOL     H233232   1.365   7.123   6.544 -0.4561  1.2180 -0.9476
 2345SOL    OH233233   1.629   3.021   0.748 -0.3174  0.2647  0.0334
 2345SOL     H133234   1.721   2.998   0.734 -0.2342  0.2462  0.5953
 2345SOL     H233235   1.595   3.036   0.660  0.0305 -0.4670 -0.2349
 2346SOL    OH233236   3.070   6.369   1.758 -0.1501 -0.0743 -0.0622
 2346SOL     H133237   3.112   6.413   1.833 -0.1656  1.5438 -0.9784
 2346SOL     H233238   3.040   6.441   1.702 -1.0688 -1.2621 -1.1179
 2347SOL    OH233239   1.095   5.323   6.703 -0.3848  0.2644  0.0665
 2347SOL     H133240   1.186   5.297   6.687 -0.5973 -1.0113  0.8508
 2347SOL     H233241   1.066   5.268   6.776 -1.5386  1.2340  0.3663
 2348SOL    OH233242   2.931   0.125   1.005 -0.0055 -0.4067  0.0022
 2348SOL     H133243   2.865   0.068   1.046 -0.5351 -0.1509 -0.4797
 2348SOL     H233244   2.941   0.089   0.917  0.0277 -0.0604 -0.1366
 2349SOL    OH233245   1.765   0.314   7.287 -0.0979  0.3472  0.0890
 2349SOL     H133246   1.822   0.370   7.234 -1.6035  0.9937 -0.8637
 2349SOL     H233247   1.721   0.375   7.347  0.9650 -0.2761  1.5500
 2350SOL    OH233248   1.526   5.471   6.574 -0.3473  0.0479  0.4469
 2350SOL     H133249   1.610   5.480   6.529  0.0155  0.2745  1.1664
 2350SOL     H233250   1.520   5.548   6.630 -0.7246 -0.3156  0.9132
 2351SOL    OH233251   7.470   6.541   2.260  0.1538 -0.2716  0.4244
 2351SOL     H133252   7.394   6.529   2.204 -0.3000  2.0247  0.4860
 2351SOL     H233253   7.438   6.521   2.348 -0.3043  0.3535  0.4054
 2352SOL    OH233254   2.816   2.444   6.896  0.1447 -0.7228  0.8479
 2352SOL     H133255   2.721   2.444   6.888  0.2893  0.1701 -1.0725
 2352SOL     H233256   2.839   2.351   6.905 -0.7900 -1.0540 -0.1323
 2353SOL    OH233257   3.813   1.030   6.479 -0.5405  0.2339 -0.2509
 2353SOL     H133258   3.720   1.037   6.500 -0.5574 -0.3031 -0.1484
 2353SOL     H233259   3.849   0.972   6.545 -0.1776  0.2454 -0.4358
 2354SOL    OH233260   0.196   2.075   1.544  0.5614 -0.1855  0.5179
 2354SOL     H133261   0.252   2.076   1.622  0.2228 -0.5206  0.7653
 2354SOL     H233262   0.230   2.004   1.490  0.1178 -0.6638  0.8599
 2355SOL    OH233263   3.038   2.707   1.182 -0.0064 -0.4289  0.8182
 2355SOL     H133264   3.027   2.790   1.227  1.1602 -0.2322  0.7726
 2355SOL     H233265   3.095   2.656   1.240 -0.5087 -1.0949  0.7286
 2356SOL    OH233266   4.147   2.354   0.180  1.1650 -0.3359  0.1436
 2356SOL     H133267   4.057   2.343   0.150  0.7361  0.1653  1.1977
 2356SOL     H233268   4.141   2.349   0.275  2.0534  0.9886  0.2911
 2357SOL    OH233269   6.798   3.265   6.561  0.2594 -0.2157 -0.0625
 2357SOL     H133270   6.841   3.216   6.490 -1.2726 -2.9243  0.8193
 2357SOL     H233271   6.711   3.226   6.567  0.1899  0.3380  2.9634
 2358SOL    OH233272   3.612   1.470   1.326  0.1487 -0.4477  0.5043
 2358SOL     H133273   3.518   1.454   1.315 -0.1793  0.8484  1.3972
 2358SOL     H233274   3.628   1.457   1.419  0.6853  0.2535  0.5089
 2359SOL    OH233275   7.341   1.330   7.194 -0.2076  0.1352  0.2395
 2359SOL     H133276   7.274   1.362   7.254 -0.8124 -0.8087  0.0906
 2359SOL     H233277   7.330   1.383   7.115 -2.3969 -1.5705 -0.6775
 2360SOL    OH233278   7.105   4.696   7.134 -0.5900  0.0607  0.0908
 2360SOL     H133279   7.084   4.626   7.195  1.9905 -1.6938 -0.9439
 2360SOL     H233280   7.200   4.696   7.129 -0.6074  2.6327 -1.1252
 2361SOL    OH233281   3.509   1.262   5.775 -0.7936 -0.5342  0.0363
 2361SOL     H133282   3.525   1.319   5.699 -0.7548  0.3364  0.6896
 2361SOL     H233283   3.415   1.247   5.774 -1.0582  0.9494  0.8373
 2362SOL    OH233284   6.416   3.738   0.544 -0.3352  0.4630  0.3294
 2362SOL     H133285   6.365   3.696   0.475 -1.1646  0.3410  1.0001
 2362SOL     H233286   6.469   3.803   0.499 -0.6501  0.1805 -0.4575
 2363SOL    OH233287   6.549   5.112   2.808 -0.4031 -0.0911 -0.3174
 2363SOL     H133288   6.576   5.193   2.852 -0.2381 -0.2616 -0.0985
 2363SOL     H233289   6.622   5.052   2.824 -0.7077 -0.4103 -0.1279
 2364SOL    OH233290   2.732   3.833   0.205 -0.2881 -0.3857  0.3222
 2364SOL     H133291   2.679   3.859   0.129  1.2194  0.6627 -0.3888
 2364SOL     H233292   2.787   3.909   0.222  1.0455 -1.5018  1.0180
 2365SOL    OH233293   3.640   4.956   0.897 -0.2003  0.4499 -0.1564
 2365SOL     H133294   3.605   4.912   0.974  1.7971  1.1317  1.1677
 2365SOL     H233295   3.711   5.011   0.930  0.2657  1.2643 -2.3857
 2366SOL    OH233296   3.393   0.238   7.091 -0.4870 -0.4434 -0.3047
 2366SOL     H133297   3.478   0.208   7.124 -0.4924 -0.2096 -0.0795
 2366SOL     H233298   3.329   0.178   7.129 -0.3573 -1.0385 -1.0193
 2367SOL    OH233299   6.815   4.786   1.855 -0.1632 -0.5793  0.3332
 2367SOL     H133300   6.908   4.803   1.872  0.1524 -0.6679 -1.2336
 2367SOL     H233301   6.815   4.731   1.777 -1.4779 -1.9541  1.3011
 2368SOL    OH233302   6.435   5.378   7.517  0.2143 -0.0853 -1.0668
 2368SOL     H133303   6.486   5.363   7.596 -0.5470  1.1344 -0.3348
 2368SOL     H233304   6.371   5.307   7.515  1.0502 -0.8376 -1.2665
 2369SOL    OH233305   4.064   0.165   6.890  0.7928 -0.5008 -0.5546
 2369SOL     H133306   4.032   0.094   6.946  0.4402 -1.1472 -1.5529
 2369SOL     H233307   4.142   0.129   6.848  0.2449 -0.5526 -1.5582
 2370SOL    OH233308   1.160   2.851   0.283 -0.6131  0.2089  0.0511
 2370SOL     H133309   1.163   2.778   0.221  0.4813  0.8617 -0.6803
 2370SOL     H233310   1.192   2.813   0.365  0.5274  0.0055 -0.4759
 2371SOL    OH233311   3.497   3.457   1.783 -0.1707 -0.1390  0.6039
 2371SOL     H133312   3.564   3.392   1.807 -0.9349 -0.8138  0.9262
 2371SOL     H233313   3.441   3.410   1.720  0.2764  0.7658 -0.4949
 2372SOL    OH233314   5.481   3.824   2.386 -0.2944  0.8431  0.1761
 2372SOL     H133315   5.411   3.883   2.358 -0.5641  1.2594  1.6949
 2372SOL     H233316   5.548   3.882   2.423  0.2160  0.3350  0.0631
 2373SOL    OH233317   0.790   4.734   1.141  0.5783  0.6655  0.1280
 2373SOL     H133318   0.723   4.680   1.100 -0.0755  2.2223 -0.8579
 2373SOL     H233319   0.871   4.684   1.128 -0.1455 -0.4835 -0.0310
 2374SOL    OH233320   2.282   3.549   6.283  0.6874  0.2903  0.1986
 2374SOL     H133321   2.203   3.556   6.337 -0.0321  1.6994 -0.9932
 2374SOL     H233322   2.258   3.485   6.215  1.1658 -0.5528  0.8158
 2375SOL    OH233323   6.681   1.309   7.869  0.4307 -0.3612  0.2366
 2375SOL     H133324   6.690   1.332   7.962 -0.5494  0.3294  0.1633
 2375SOL     H233325   6.613   1.242   7.867  1.7311 -1.7099  0.2049
 2376SOL    OH233326   0.933   7.882   0.423 -0.5981 -0.2001  0.0821
 2376SOL     H133327   0.977   7.906   0.504 -2.0274  1.1192  0.4826
 2376SOL     H233328   0.956   7.790   0.409 -0.9761 -0.6521  2.3802
 2377SOL    OH233329   4.896   0.108   1.915  0.1555 -0.7490  0.1490
 2377SOL     H133330   4.860   0.157   1.990 -0.7797 -1.2478  0.0411
 2377SOL     H233331   4.899   0.172   1.844 -0.1122 -0.5872  0.2827
 2378SOL    OH233332   2.615   7.775   2.224  0.5504  0.2289  0.0888
 2378SOL     H133333   2.527   7.796   2.192  1.3812  0.4148 -2.1345
 2378SOL     H233334   2.602   7.697   2.279 -1.2080  1.1596  1.0587
 2379SOL    OH233335   2.738   7.912   1.073 -0.2928 -0.5759 -0.9101
 2379SOL     H133336   2.650   7.925   1.040 -0.5593 -2.7128 -1.1326
 2379SOL     H233337   2.766   7.828   1.035  1.1495 -0.7835  0.5382
 2380SOL    OH233338   0.609   3.526   6.546  0.3858  0.3522  0.6642
 2380SOL     H133339   0.610   3.467   6.471 -0.3333  0.7086  0.3673
 2380SOL     H233340   0.516   3.541   6.563  0.4378 -1.7714  3.2472
 2381SOL    OH233341   2.688   7.293   0.645  0.0073  0.2544 -0.5666
 2381SOL     H133342   2.702   7.254   0.559 -1.1180 -1.1540 -0.1319
 2381SOL     H233343   2.611   7.248   0.679 -0.3951  1.7766  0.6036
 2382SOL    OH233344   4.720   5.507   1.333  0.1047 -0.3791 -0.5965
 2382SOL     H133345   4.668   5.452   1.275 -0.4761 -0.4570  0.0001
 2382SOL     H233346   4.749   5.579   1.277 -3.0116  1.1892 -0.2936
 2383SOL    OH233347   7.457   5.534   1.557  0.0861  0.3673 -0.6030
 2383SOL     H133348   7.397   5.492   1.619  0.3346 -1.0253 -1.3086
 2383SOL     H233349   7.403   5.553   1.481  0.0259  1.1653 -0.3740
 2384SOL    OH233350   0.248   1.400   0.380  0.6305  0.4564  0.1954
 2384SOL     H133351   0.222   1.310   0.396  1.0707 -0.0630 -1.8908
 2384SOL     H233352   0.260   1.437   0.468 -2.4927 -0.5899  1.1336
 2385SOL    OH233353   3.781   5.983   7.934  0.0647  0.1985  0.3924
 2385SOL     H133354   3.741   5.971   7.848  0.6445  0.2667  0.1147
 2385SOL     H233355   3.831   6.064   7.926  0.1780  0.1671  0.7727
 2386SOL    OH233356   5.376   6.826   1.551 -0.4787 -0.8219 -0.1404
 2386SOL     H133357   5.424   6.749   1.582  0.3281  0.3086  1.4924
 2386SOL     H233358   5.403   6.835   1.459  2.2207 -0.3818  0.6614
 2387SOL    OH233359   5.783   1.030   7.801  0.0746  0.4246  0.1473
 2387SOL     H133360   5.788   1.028   7.897  1.5991 -0.6580  0.0721
 2387SOL     H233361   5.763   1.121   7.780 -0.4549  0.6347  1.5039
 2388SOL    OH233362   4.584   4.697   8.120 -0.1287  0.3703  0.5016
 2388SOL     H133363   4.649   4.732   8.060  0.3869  2.2437  2.1056
 2388SOL     H233364   4.506   4.751   8.106  0.0517  0.9355  1.6201
 2389SOL    OH233365   3.308   7.914   7.202 -0.7455 -1.0008 -0.1519
 2389SOL     H133366   3.242   7.850   7.227 -0.3888 -1.1434  0.4292
 2389SOL     H233367   3.369   7.915   7.275  1.3139 -2.7589 -1.7751
 2390SOL    OH233368   0.907   1.383   6.226 -0.4718  0.1102 -0.6340
 2390SOL     H133369   0.894   1.460   6.171 -0.7581 -0.1952 -0.9974
 2390SOL     H233370   0.990   1.346   6.197 -1.0366 -0.5393 -1.4613
 2391SOL    OH233371   0.439   0.526   7.543  0.3374  0.0711 -0.5358
 2391SOL     H133372   0.443   0.599   7.605 -0.6299  0.6448 -1.1313
 2391SOL     H233373   0.346   0.515   7.525  0.4809 -1.2297 -0.5616
 2392SOL    OH233374   1.579   6.944   6.506 -0.5281 -0.8634 -0.2332
 2392SOL     H133375   1.577   6.931   6.601 -1.1961 -0.3932 -0.1808
 2392SOL     H233376   1.584   6.855   6.470 -0.4290 -1.0493  0.2385
 2393SOL    OH233377   0.216   6.030   1.474 -0.3281 -0.1876 -0.6400
 2393SOL     H133378   0.276   6.059   1.406  0.0907 -0.4332 -0.3782
 2393SOL     H233379   0.133   6.015   1.428  0.4724 -2.2964 -1.4867
 2394SOL    OH233380   4.131   5.915   6.549  0.1755 -0.2066  0.4230
 2394SOL     H133381   4.114   5.973   6.474  0.7820 -0.5059  0.0538
 2394SOL     H233382   4.190   5.964   6.605  0.1461 -0.1932  0.4430
 2395SOL    OH233383  -0.002   2.880   0.713 -0.2493  0.0107 -0.5080
 2395SOL     H133384   0.022   2.969   0.686  2.4530 -0.2474  0.8548
 2395SOL     H233385   0.047   2.823   0.654 -0.0808 -0.5621  0.1792
 2396SOL    OH233386   2.403   7.567   6.242  0.5221 -0.2413  0.2018
 2396SOL     H133387   2.309   7.581   6.238  0.3623 -0.6634  1.9942
 2396SOL     H233388   2.417   7.482   6.199  0.0295 -0.4032  0.3678
 2397SOL    OH233389   0.844   5.774   7.033 -0.2152 -0.0278 -0.4512
 2397SOL     H133390   0.781   5.719   6.987  0.7281 -0.9738 -0.6242
 2397SOL     H233391   0.926   5.762   6.986  0.4453  0.0431  0.6567
 2398SOL    OH233392   0.501   4.807   2.247  0.1715 -0.2759 -0.5999
 2398SOL     H133393   0.488   4.716   2.270  1.2886  0.1862  2.0382
 2398SOL     H233394   0.476   4.813   2.155 -0.2712 -3.1390 -0.6880
 2399SOL    OH233395   4.282   7.693   6.629  0.1047 -0.4872 -0.2216
 2399SOL     H133396   4.285   7.785   6.603  2.2528 -0.7858 -1.1314
 2399SOL     H233397   4.343   7.687   6.703 -1.0205 -0.9427  0.6916
 2400SOL    OH233398   6.132   4.280   2.270  0.0392  0.4212 -0.4549
 2400SOL     H133399   6.141   4.223   2.194 -0.8078  0.5911 -0.6876
 2400SOL     H233400   6.075   4.233   2.329 -0.0515  0.6963 -0.3201
 2401SOL    OH233401   0.525   4.538   0.630  0.1268  0.1623  0.5133
 2401SOL     H133402   0.512   4.631   0.649  0.8986  0.5202 -0.6508
 2401SOL     H233403   0.579   4.506   0.702  1.6298  1.1173 -0.1550
 2402SOL    OH233404   7.934   6.584   6.203  0.4777 -0.2373  0.3819
 2402SOL     H133405   7.839   6.586   6.187  1.0707  2.7332 -3.3650
 2402SOL     H233406   7.957   6.491   6.196 -1.6714 -0.6361 -2.3430
 2403SOL    OH233407   5.568   2.567   7.289 -0.1806  0.5409  0.4728
 2403SOL     H133408   5.481   2.540   7.258  0.0879 -0.0326  0.2222
 2403SOL     H233409   5.551   2.605   7.375 -0.9103  2.0420 -0.3246
 2404SOL    OH233410   0.239   0.770   0.742 -0.4902 -0.5169  0.2660
 2404SOL     H133411   0.264   0.732   0.827  0.1390  1.2461  0.8984
 2404SOL     H233412   0.323   0.783   0.697 -0.6017  1.0287  0.4742
 2405SOL    OH233413   0.573   1.565   0.245  0.1020 -0.0544 -0.0202
 2405SOL     H133414   0.499   1.575   0.186  0.3094  0.4217 -0.1988
 2405SOL     H233415   0.535   1.528   0.325 -0.7353  2.5027  0.8062
 2406SOL    OH233416   7.527   6.167   0.118 -0.0199  0.0611  0.4822
 2406SOL     H133417   7.590   6.168   0.189 -0.4069 -1.8850  0.8846
 2406SOL     H233418   7.580   6.153   0.039  0.2528  0.6181  0.5657
 2407SOL    OH233419   3.460   5.570   2.416  0.0772  0.5053  0.2266
 2407SOL     H133420   3.549   5.549   2.446 -0.6268 -1.4770  1.0302
 2407SOL     H233421   3.447   5.515   2.339 -0.5512  0.5844  0.2764
 2408SOL    OH233422   3.432   4.461   6.905  0.3692  0.1459  0.0452
 2408SOL     H133423   3.414   4.449   6.999  1.5679  0.8086  0.3774
 2408SOL     H233424   3.353   4.430   6.861  0.2971 -1.3742  1.2222
 2409SOL    OH233425   7.120   0.545   1.786 -0.0302  0.7587  0.0361
 2409SOL     H133426   7.141   0.638   1.783  0.7223  0.5932 -0.0016
 2409SOL     H233427   7.100   0.522   1.695  1.5135  0.5054 -0.2594
 2410SOL    OH233428   6.120   5.139   1.153  0.1682 -0.1554  0.2214
 2410SOL     H133429   6.058   5.117   1.223  0.2052  1.6782  0.8503
 2410SOL     H233430   6.086   5.220   1.116  1.8036  0.4804  0.1016
 2411SOL    OH233431   4.227   1.660   7.500  0.0522  0.0420 -0.1252
 2411SOL     H133432   4.319   1.646   7.481  0.1258 -0.6052  0.6632
 2411SOL     H233433   4.223   1.745   7.543 -0.0095  1.1198 -2.1957
 2412SOL    OH233434   3.010   4.957   7.311  0.6722 -0.7044  0.3524
 2412SOL     H133435   3.023   4.904   7.390 -0.2140  1.4922  2.0148
 2412SOL     H233436   2.929   4.924   7.273  0.5524 -1.0589  0.9158
 2413SOL    OH233437   4.316   3.853   0.973 -0.0437  0.0169 -0.2481
 2413SOL     H133438   4.287   3.815   0.890  0.1478 -0.0112 -0.3013
 2413SOL     H233439   4.240   3.844   1.030 -0.0956 -0.1861 -0.3457
 2414SOL    OH233440   0.980   4.052   6.401  0.4443  0.6504  0.0278
 2414SOL     H133441   1.008   4.142   6.416 -1.3132  0.6273  3.9991
 2414SOL     H233442   1.053   3.999   6.432  0.1611  0.6980  0.7903
 2415SOL    OH233443   1.043   3.374   0.761 -0.1915 -0.1343 -0.1912
 2415SOL     H133444   1.115   3.379   0.824 -0.3405 -0.1845 -0.0173
 2415SOL     H233445   1.076   3.319   0.691 -0.4141 -0.9729  0.3564
 2416SOL    OH233446   7.518   0.642   0.099 -0.1677  0.7040 -0.0333
 2416SOL     H133447   7.597   0.629   0.152 -0.8879 -1.1805  0.6401
 2416SOL     H233448   7.545   0.617   0.011  0.4002  1.5648 -0.1080
 2417SOL    OH233449   3.636   0.171   5.993  0.2302  0.0014  0.0060
 2417SOL     H133450   3.622   0.198   6.083  0.5602 -1.8347  0.6250
 2417SOL     H233451   3.731   0.164   5.984  0.1109 -2.3599  0.3083
 2418SOL    OH233452   7.908   2.649   0.943 -0.0384 -0.2084 -0.5862
 2418SOL     H133453   8.003   2.659   0.943 -0.0609  0.0501 -1.2472
 2418SOL     H233454   7.877   2.719   0.886 -0.7594  0.8556  1.0857
 2419SOL    OH233455   3.690   7.110   7.494  0.6487  0.1262  0.7441
 2419SOL     H133456   3.715   7.114   7.402 -0.0471  1.0104  0.5910
 2419SOL     H233457   3.624   7.040   7.497  1.3684 -0.5623  0.7429
 2420SOL    OH233458   3.161   0.795   7.948  0.3584  0.1629 -0.1578
 2420SOL     H133459   3.141   0.853   8.021  0.9129 -1.0083  0.9323
 2420SOL     H233460   3.164   0.708   7.987 -2.8563 -0.9444 -2.1514
 2421SOL    OH233461   5.970   4.499   0.031 -0.2148  0.3972  0.4296
 2421SOL     H133462   6.049   4.552   0.037  1.5423 -2.2021  1.5642
 2421SOL     H233463   5.978   4.453  -0.052 -0.3802 -0.0747  0.6704
 2422SOL    OH233464   2.237   6.781   7.111 -0.3170  0.2239 -0.3819
 2422SOL     H133465   2.323   6.785   7.068 -0.8758 -1.9573 -1.7884
 2422SOL     H233466   2.188   6.853   7.073 -0.5621 -1.2514 -2.9537
 2423SOL    OH233467   6.302   6.796   2.123  0.2161  0.3282  0.3182
 2423SOL     H133468   6.330   6.749   2.044 -1.7869  0.4915 -0.5441
 2423SOL     H233469   6.376   6.789   2.183  0.8103 -2.0413 -0.6110
 2424SOL    OH233470   6.491   1.401   0.660 -0.0419  0.4941 -0.2288
 2424SOL     H133471   6.580   1.395   0.695 -0.4033 -0.9586  0.4723
 2424SOL     H233472   6.436   1.357   0.726 -1.6179  3.4564  0.5343
 2425SOL    OH233473   2.050   0.809   7.862 -0.1858  0.1617 -0.8497
 2425SOL     H133474   1.968   0.844   7.896  0.1134 -0.5184  0.6056
 2425SOL     H233475   2.041   0.714   7.869 -0.0779 -0.0017 -2.6155
 2426SOL    OH233476   4.314   5.015   0.123  0.2038 -0.6107 -0.0732
 2426SOL     H133477   4.244   5.078   0.104  1.2410  0.7711  0.5988
 2426SOL     H233478   4.372   5.061   0.183  1.5047 -1.8835 -0.3316
 2427SOL    OH233479   6.101   5.964   0.435 -0.0602  0.5734 -0.2068
 2427SOL     H133480   6.111   5.928   0.523  1.0848 -1.2614 -1.0538
 2427SOL     H233481   6.010   5.947   0.412  0.0210 -0.2415  0.0740
 2428SOL    OH233482   3.290   7.150   6.132 -0.3792 -0.2796 -0.1050
 2428SOL     H133483   3.224   7.096   6.175 -0.5454  0.3130  0.3769
 2428SOL     H233484   3.261   7.240   6.146 -0.0260 -0.0560 -0.7889
 2429SOL    OH233485   4.625   2.649   7.009 -0.2027 -0.2925  0.2035
 2429SOL     H133486   4.562   2.704   7.056 -1.3694 -0.5748 -1.0272
 2429SOL     H233487   4.580   2.624   6.928  1.6738 -0.0840 -0.9205
 2430SOL    OH233488   6.518   7.720   2.471  1.3198 -0.5977 -0.5043
 2430SOL     H133489   6.524   7.793   2.410 -1.9564 -1.2294 -1.6572
 2430SOL     H233490   6.609   7.692   2.483  2.2003  0.5973 -3.7991
 2431SOL    OH233491   6.637   0.364   7.014  0.0049 -0.2812 -0.0401
 2431SOL     H133492   6.685   0.416   7.078 -1.7913  2.7686 -1.0811
 2431SOL     H233493   6.562   0.329   7.062  0.6436 -1.0773  0.3943
 2432SOL    OH233494   4.261   6.712   7.642 -0.3958 -0.2628 -0.3181
 2432SOL     H133495   4.183   6.734   7.591 -0.6781 -1.8757 -0.6292
 2432SOL     H233496   4.333   6.751   7.593 -0.7460 -1.1610 -1.5847
 2433SOL    OH233497   0.109   5.794   2.090 -0.7477 -0.4915 -0.0009
 2433SOL     H133498   0.134   5.809   2.182 -2.1428 -3.5015  0.9161
 2433SOL     H233499   0.192   5.796   2.043 -0.1428  2.5209  1.0640
 2434SOL    OH233500   7.568   2.666   5.875  0.4584  1.0495  0.5900
 2434SOL     H133501   7.524   2.738   5.921 -0.1017  1.2102 -0.1938
 2434SOL     H233502   7.499   2.601   5.860  0.3146  1.6082 -1.2714
 2435SOL    OH233503   1.510   3.290   7.941  0.4996  0.5620  0.3287
 2435SOL     H133504   1.600   3.260   7.954 -0.1934 -1.4783  0.6317
 2435SOL     H233505   1.470   3.283   8.028 -0.0782  1.0200  0.1032
 2436SOL    OH233506   4.912   5.021   8.119  0.2786  0.7016 -0.1388
 2436SOL     H133507   4.895   5.004   8.211 -0.5660  1.8222 -0.0631
 2436SOL     H233508   5.004   5.000   8.106  0.2288 -0.1131  0.8012
 2437SOL    OH233509   7.052   6.847   7.869  0.3526 -0.1802 -0.2381
 2437SOL     H133510   6.981   6.824   7.810 -1.4796  3.4074  0.3831
 2437SOL     H233511   7.091   6.925   7.830  1.8692 -0.2537  1.0867
 2438SOL    OH233512   1.292   3.911   7.975  0.0653  0.4053  0.1383
 2438SOL     H133513   1.209   3.864   7.968  0.6417 -0.8078  1.1864
 2438SOL     H233514   1.349   3.871   7.909  0.6809 -0.6583  1.2957
 2439SOL    OH233515   1.867   3.270   1.155  0.2905  0.0558 -0.2556
 2439SOL     H133516   1.898   3.359   1.170  2.1133 -0.3606 -1.3753
 2439SOL     H233517   1.850   3.267   1.060 -1.4676 -0.2724  0.0548
 2440SOL    OH233518   0.037   4.311   1.694 -0.4137  0.3180  0.1590
 2440SOL     H133519   0.027   4.406   1.701 -1.4632  0.2024  0.3419
 2440SOL     H233520   0.019   4.292   1.602  0.2718  0.3446  0.0153
 2441SOL    OH233521   5.757   5.538   7.863  1.0231  0.0255 -0.3161
 2441SOL     H133522   5.802   5.563   7.783 -1.9148 -0.0241 -2.0614
 2441SOL     H233523   5.751   5.619   7.914 -0.9290  1.0594 -2.1295
 2442SOL    OH233524   4.670   4.696   6.168 -0.7748  0.2619  0.8663
 2442SOL     H133525   4.756   4.721   6.136  0.0863 -1.5839  1.6579
 2442SOL     H233526   4.618   4.777   6.165  0.0053  0.6888 -2.6925
 2443SOL    OH233527   0.880   0.382   6.511 -0.7266  0.0869 -0.5898
 2443SOL     H133528   0.966   0.339   6.509 -0.4943  0.5245 -0.0376
 2443SOL     H233529   0.848   0.374   6.421 -0.5338 -0.9327 -0.5792
 2444SOL    OH233530   2.667   3.637   7.915  0.2456  0.1517 -0.4470
 2444SOL     H133531   2.596   3.620   7.853 -0.7191 -1.8396  1.1309
 2444SOL     H233532   2.628   3.695   7.981  0.3122 -0.2944 -0.0110
 2445SOL    OH233533   0.640   5.621   6.942 -0.1426  0.3450 -0.7551
 2445SOL     H133534   0.636   5.568   7.021  0.8967 -1.0274 -1.6044
 2445SOL     H233535   0.559   5.673   6.944 -0.2862  0.0728  1.0074
 2446SOL    OH233536   1.081   1.622   2.175 -0.6307  0.8557  0.1651
 2446SOL     H133537   1.051   1.570   2.100 -1.7416  0.7206  0.6969
 2446SOL     H233538   1.113   1.558   2.238 -0.7476  0.8977  0.2676
 2447SOL    OH233539   4.149   5.119   0.776  0.4239 -0.4877  0.4190
 2447SOL     H133540   4.126   5.072   0.696  0.1370 -0.1427  0.2992
 2447SOL     H233541   4.114   5.207   0.763  0.0701 -0.5294  1.0644
 2448SOL    OH233542   1.153   2.287   7.221  0.0368  0.2355  0.9587
 2448SOL     H133543   1.195   2.285   7.307 -0.0532 -1.0177  0.9764
 2448SOL     H233544   1.062   2.262   7.239  0.4008 -1.6027  0.2824
 2449SOL    OH233545   2.335   6.839   2.193  0.1705  0.0091 -0.3723
 2449SOL     H133546   2.262   6.859   2.135 -0.4520 -2.4671 -0.4917
 2449SOL     H233547   2.395   6.913   2.184 -2.0355  1.7836 -0.7299
 2450SOL    OH233548   6.348   7.888   8.087 -0.1028  0.6268  0.2664
 2450SOL     H133549   6.385   7.859   8.170 -0.4820 -1.3622 -0.2252
 2450SOL     H233550   6.258   7.856   8.088 -0.1139  0.5989 -0.8718
 2451SOL    OH233551   4.860   5.916   1.101 -0.0731  0.2959 -0.3826
 2451SOL     H133552   4.809   5.838   1.077 -0.2434  0.2945 -0.0100
 2451SOL     H233553   4.886   5.901   1.192  0.3044  0.4540 -0.4631
 2452SOL    OH233554   7.346   3.315   7.724  0.7510 -0.3443  0.7842
 2452SOL     H133555   7.368   3.331   7.816 -2.7370  2.0796  1.2726
 2452SOL     H233556   7.410   3.365   7.674  1.4685 -0.1021  1.9393
 2453SOL    OH233557   6.251   0.918   6.216  0.0965 -0.1080 -0.7405
 2453SOL     H133558   6.328   0.971   6.234  0.4449 -1.0127  0.5206
 2453SOL     H233559   6.206   0.964   6.145  0.1517  2.1290  0.6215
 2454SOL    OH233560   5.754   5.792   7.982 -0.1211  0.0508 -0.0363
 2454SOL     H133561   5.686   5.848   7.944 -2.4094 -2.3770  0.3511
 2454SOL     H233562   5.722   5.770   8.069  0.8679 -1.5998 -0.0553
 2455SOL    OH233563   3.597   2.837   0.167  0.1641 -0.0101  0.5950
 2455SOL     H133564   3.688   2.844   0.140 -0.3061  1.1042 -0.8180
 2455SOL     H233565   3.577   2.744   0.161  1.3412 -0.3231  1.4163
 2456SOL    OH233566   5.810   3.322   8.145  0.0924  0.1319  0.0984
 2456SOL     H133567   5.814   3.276   8.228  0.4577  1.4733  0.8428
 2456SOL     H233568   5.752   3.397   8.162  0.7167  0.7975 -0.6432
 2457SOL    OH233569   6.993   6.130   6.275  0.6839  0.1192 -0.1243
 2457SOL     H133570   6.917   6.182   6.251  0.1400 -0.8180 -0.4269
 2457SOL     H233571   7.017   6.083   6.195  1.2402 -0.0111  0.1129
 2458SOL    OH233572   1.100   6.716   7.046  0.2628  0.1386  0.2543
 2458SOL     H133573   1.123   6.708   6.953 -0.1686 -0.5668  0.2004
 2458SOL     H233574   1.182   6.740   7.089  0.9933 -1.7889 -0.0099
 2459SOL    OH233575   6.843   3.087   7.271  0.0001 -0.1719 -0.0311
 2459SOL     H133576   6.805   3.089   7.183  1.5893 -1.2603 -0.7594
 2459SOL     H233577   6.891   3.005   7.275 -0.5548 -0.4200  2.0862
 2460SOL    OH233578   0.891   5.890   1.266 -0.2213  0.0235  0.2960
 2460SOL     H133579   0.943   5.823   1.221 -1.7846  0.1151 -1.7221
 2460SOL     H233580   0.938   5.972   1.250  1.2844 -0.4144  2.1352
 2461SOL    OH233581   6.850   6.196   0.278 -0.6459  0.7228 -0.6356
 2461SOL     H133582   6.871   6.110   0.241  1.0253  0.5138  0.7068
 2461SOL     H233583   6.761   6.186   0.312 -0.1961 -0.7352  0.1656
 2462SOL    OH233584   1.058   5.134   6.894  0.3537  0.2861 -0.0723
 2462SOL     H133585   1.135   5.081   6.878 -0.4487 -0.1133 -2.8068
 2462SOL     H233586   0.986   5.071   6.902  0.0346  0.7501  0.8909
 2463SOL    OH233587   7.664   6.910   6.042  0.0280  0.7603 -0.0782
 2463SOL     H133588   7.693   6.853   6.114 -1.8470  0.2388  0.2724
 2463SOL     H233589   7.600   6.858   5.994 -0.2293  1.8608 -0.9388
 2464SOL    OH233590   3.556   4.742   1.814  0.4343  0.3600 -0.2612
 2464SOL     H133591   3.484   4.744   1.751  0.0188  1.3837  0.2425
 2464SOL     H233592   3.630   4.780   1.766  0.5870 -0.4973 -0.7082
 2465SOL    OH233593   4.122   6.562   7.310  0.0930 -0.0970  0.4480
 2465SOL     H133594   4.198   6.579   7.253 -0.0869  0.2398  0.3124
 2465SOL     H233595   4.115   6.639   7.365  0.4918 -0.5827  1.1869
 2466SOL    OH233596   3.502   7.916   2.242 -0.0787  0.3383 -0.4087
 2466SOL     H133597   3.559   7.993   2.232  1.2263 -0.5252  0.1863
 2466SOL     H233598   3.490   7.909   2.337  1.7279 -1.5287 -0.2780
 2467SOL    OH233599   1.043   3.510   2.871  0.0678 -0.1382 -0.1201
 2467SOL     H133600   1.087   3.572   2.929  0.0776  1.2273 -1.5896
 2467SOL     H233601   0.973   3.560   2.830 -1.9247 -1.8854  0.9958
 2468SOL    OH233602   2.782   6.064   8.044 -0.4418 -0.7509 -0.0415
 2468SOL     H133603   2.826   6.052   7.960 -2.1755  2.1814 -1.4406
 2468SOL     H233604   2.843   6.027   8.108  3.2169  1.4563 -2.0879
 2469SOL    OH233605   2.759   0.899   7.965  0.7212 -0.6038 -0.5769
 2469SOL     H133606   2.745   0.963   8.035  0.1383 -1.5456  0.1940
 2469SOL     H233607   2.676   0.853   7.958  1.1109 -1.2255 -1.1688
 2470SOL    OH233608   7.345   2.878   2.619 -1.0852  0.4253 -0.5696
 2470SOL     H133609   7.281   2.946   2.598 -1.9244 -0.2379 -0.1831
 2470SOL     H233610   7.323   2.805   2.560 -0.5127  0.2934 -0.6273
 2471SOL    OH233611   1.554   2.574   6.291 -0.4833  0.5348 -0.1511
 2471SOL     H133612   1.556   2.505   6.357 -0.8144 -0.1863 -0.8997
 2471SOL     H233613   1.646   2.602   6.283  0.0819 -1.6903 -1.8086
 2472SOL    OH233614   7.486   5.671   2.111 -0.1380 -0.5699  0.6348
 2472SOL     H133615   7.477   5.753   2.159 -1.7571  0.0611 -0.6701
 2472SOL     H233616   7.580   5.652   2.112  0.0085  0.1885  2.7457
 2473SOL    OH233617   3.509   7.030   6.659 -0.2574  0.1243 -0.3653
 2473SOL     H133618   3.447   6.982   6.714 -0.2631  1.2048  0.6026
 2473SOL     H233619   3.456   7.066   6.588 -0.0239 -2.4497 -1.9148
 2474SOL    OH233620   0.146   0.508   7.494 -0.0096  0.9849 -0.1957
 2474SOL     H133621   0.129   0.420   7.526  1.3456  1.0002  0.5780
 2474SOL     H233622   0.105   0.510   7.407 -1.1183  0.0049  0.2865
 2475SOL    OH233623   6.829   3.801   6.844  0.3777 -0.7045  0.2063
 2475SOL     H133624   6.900   3.749   6.806  0.7524  0.7275 -1.1208
 2475SOL     H233625   6.843   3.794   6.938 -0.3813 -4.0732  0.1276
 2476SOL    OH233626   0.103   6.926   0.410  0.0124 -0.9378 -0.3437
 2476SOL     H133627   0.046   6.974   0.471 -0.2775  0.4438 -1.6631
 2476SOL     H233628   0.160   6.874   0.466  0.5191  1.1710  1.1614
 2477SOL    OH233629   3.204   2.959   6.931 -0.2157 -0.5618  0.0775
 2477SOL     H133630   3.151   3.038   6.917  1.4262  0.9080  1.8927
 2477SOL     H233631   3.273   2.965   6.864 -0.6432 -0.9583 -0.4005
 2478SOL    OH233632   5.866   7.215   7.122 -0.2580  0.1554 -0.5548
 2478SOL     H133633   5.896   7.263   7.044  0.8094  0.3245 -0.0413
 2478SOL     H233634   5.946   7.179   7.160 -0.9151 -0.9963 -0.2333
 2479SOL    OH233635   3.545   0.286   1.637 -0.1178 -0.4217 -0.3791
 2479SOL     H133636   3.609   0.283   1.708 -1.2349  0.3271  0.6760
 2479SOL     H233637   3.489   0.209   1.652 -1.7138  0.9529  0.8710
 2480SOL    OH233638   1.325   4.522   2.028  0.0992  0.0992  0.0783
 2480SOL     H133639   1.318   4.510   2.123 -0.9680  0.2494  0.0302
 2480SOL     H233640   1.314   4.434   1.992 -0.0749  0.1231  0.0713
 2481SOL    OH233641   7.376   2.240   0.864 -0.2270  0.3107 -0.1916
 2481SOL     H133642   7.408   2.231   0.774  1.7393  1.1095  0.3975
 2481SOL     H233643   7.368   2.334   0.878  2.5833  0.3500  1.4822
 2482SOL    OH233644   0.958   2.338   6.482  0.2984 -0.2416  0.2034
 2482SOL     H133645   0.963   2.407   6.548 -0.9465 -0.1055  0.1743
 2482SOL     H233646   0.874   2.295   6.499 -0.7128  0.7126 -2.1739
 2483SOL    OH233647   0.864   6.796   7.131 -0.2221  0.2521 -0.2694
 2483SOL     H133648   0.874   6.890   7.119  0.3961  0.4840  1.8683
 2483SOL     H233649   0.952   6.761   7.115  0.9833  0.7302  4.6787
 2484SOL    OH233650   1.998   2.637   1.949 -0.8700 -1.0594  0.1369
 2484SOL     H133651   2.008   2.728   1.976  0.3036 -0.7747 -1.2293
 2484SOL     H233652   2.057   2.588   2.006  0.3138 -0.6684 -0.7423
 2485SOL    OH233653   1.552   7.489   7.128 -0.0660  0.1338  0.4357
 2485SOL     H133654   1.569   7.404   7.169 -1.1414  0.5223  1.7302
 2485SOL     H233655   1.488   7.531   7.186  1.0609  2.1577  0.2598
 2486SOL    OH233656   6.688   5.078   1.884 -0.6741 -0.0299  0.0911
 2486SOL     H133657   6.716   4.986   1.882 -1.7995 -0.3726 -0.8709
 2486SOL     H233658   6.596   5.074   1.910 -0.2332  0.9744  1.8311
 2487SOL    OH233659   6.414   7.378   0.280  0.3962  0.4422  0.2093
 2487SOL     H133660   6.453   7.334   0.205 -0.2587 -0.1737  0.2253
 2487SOL     H233661   6.349   7.316   0.314  1.2067  0.4079  1.7362
 2488SOL    OH233662   7.479   0.059   6.799 -0.1150  0.1106 -0.2591
 2488SOL     H133663   7.497   0.145   6.761 -2.6956  0.0635 -1.7073
 2488SOL     H233664   7.468   0.075   6.893 -3.9554  1.9860 -0.9385
 2489SOL    OH233665   6.128   5.752   1.629  0.5217 -0.2157 -0.5499
 2489SOL     H133666   6.095   5.801   1.553  1.3566  2.8883  1.0154
 2489SOL     H233667   6.174   5.677   1.590 -0.4011  0.4556 -3.0518
 2490SOL    OH233668   0.977   1.426   1.990 -0.1262  0.1422 -0.2805
 2490SOL     H133669   1.037   1.354   1.970  0.2607  0.4058 -0.0740
 2490SOL     H233670   0.900   1.409   1.936  0.9349  0.8884 -2.0526
 2491SOL    OH233671   6.661   7.534   8.039 -0.2152  0.5755 -0.4539
 2491SOL     H133672   6.723   7.550   8.110  0.7676 -1.0789 -0.9217
 2491SOL     H233673   6.575   7.547   8.080  0.3480  0.1139  0.9231
 2492SOL    OH233674   3.080   3.796   0.598 -0.1669  0.4548 -0.4668
 2492SOL     H133675   3.053   3.785   0.507  0.8869 -0.2118 -0.7120
 2492SOL     H233676   3.010   3.756   0.649  0.7041 -1.9998 -1.1213
 2493SOL    OH233677   5.654   3.971   7.582  0.6111 -0.2578 -0.1483
 2493SOL     H133678   5.685   4.059   7.604  1.4457 -0.6828  0.3781
 2493SOL     H233679   5.731   3.915   7.588 -0.0326 -1.1392  0.1427
 2494SOL    OH233680   0.326   1.841   2.114 -0.1706 -0.1582 -0.8398
 2494SOL     H133681   0.320   1.757   2.068 -1.4088  0.5632 -2.0257
 2494SOL     H233682   0.419   1.860   2.117  0.1849 -1.8866  0.0188
 2495SOL    OH233683   2.203   1.955   1.773  0.0873 -0.1072 -0.2162
 2495SOL     H133684   2.215   1.949   1.678 -0.7091 -0.5017 -0.3025
 2495SOL     H233685   2.291   1.970   1.808  0.0830  2.3085 -1.1837
 2496SOL    OH233686   2.660   7.910   8.016  0.0243  0.6860  0.8239
 2496SOL     H133687   2.630   7.879   8.101  1.3153 -1.7899  0.4272
 2496SOL     H233688   2.580   7.924   7.965 -0.6435 -1.2976  1.2866
 2497SOL    OH233689  -0.029   0.563   7.037  0.0107 -0.2682  0.6606
 2497SOL     H133690   0.053   0.524   7.008 -0.1841 -0.9531  1.0171
 2497SOL     H233691  -0.018   0.657   7.021  1.9516  0.0215  3.2703
 2498SOL    OH233692   6.961   0.420   0.481  0.1487  0.2988 -0.0796
 2498SOL     H133693   6.965   0.370   0.400 -2.0544 -0.6788  0.3471
 2498SOL     H233694   7.030   0.383   0.536  0.5989 -0.1319 -0.9298
 2499SOL    OH233695   0.091   5.528   1.979  0.0732 -0.6163 -0.2868
 2499SOL     H133696   0.070   5.613   2.019 -0.2544 -0.7495 -0.1722
 2499SOL     H233697   0.182   5.512   2.005  0.5125  0.2319 -1.2648
 2500SOL    OH233698   0.860   3.021   7.870 -0.0760  0.3307  0.6301
 2500SOL     H133699   0.821   3.000   7.785 -2.0520  2.9606  0.8294
 2500SOL     H233700   0.810   2.969   7.933  0.0063 -0.0420  0.3877
 2501SOL    OH233701   7.520   7.114   1.153  0.1689 -0.0050 -0.0389
 2501SOL     H133702   7.610   7.089   1.178  0.8383  0.9075 -1.5277
 2501SOL     H233703   7.514   7.092   1.060 -1.2145 -0.1916  0.0845
 2502SOL    OH233704   7.162   6.049   2.473 -0.6446 -0.0068  0.2075
 2502SOL     H133705   7.082   6.035   2.524  0.6692 -0.9021  2.0945
 2502SOL     H233706   7.180   5.963   2.433 -0.4728  0.1222  0.0056
 2503SOL    OH233707   6.902   1.341   2.864  0.7239 -0.2569 -0.1654
 2503SOL     H133708   6.855   1.286   2.802 -1.3797  2.5411 -1.1931
 2503SOL     H233709   6.991   1.346   2.830  0.1262 -0.4803 -1.7894
 2504SOL    OH233710   1.696   5.618   6.204  0.5353 -0.3015 -0.2956
 2504SOL     H133711   1.715   5.525   6.193  0.4319 -0.4003  0.3499
 2504SOL     H233712   1.733   5.640   6.290 -1.0630 -0.1802  0.3763
 2505SOL    OH233713   0.090   7.723   7.027  0.3291  0.4173  0.7303
 2505SOL     H133714   0.166   7.666   7.035 -0.1218 -0.3621 -0.4434
 2505SOL     H233715   0.023   7.682   7.081  0.1881  0.1419  0.3490
 2506SOL    OH233716   6.213   7.043   6.330 -0.2068  0.3822 -0.1056
 2506SOL     H133717   6.139   6.986   6.310 -1.5192  1.2581  2.0780
 2506SOL     H233718   6.215   7.107   6.258 -0.7841 -0.4054 -0.8260
 2507SOL    OH233719   7.553   2.388   1.013  0.1053  0.2013 -0.1032
 2507SOL     H133720   7.461   2.376   1.036  0.0988  1.8474  0.8068
 2507SOL     H233721   7.551   2.448   0.938  0.5265  2.3866  1.5957
 2508SOL    OH233722   6.541   6.251   6.885 -0.1238 -0.0927 -0.0134
 2508SOL     H133723   6.629   6.245   6.848 -0.0370  0.2222  0.1376
 2508SOL     H233724   6.513   6.341   6.866  0.9775  0.9698  2.9946
 2509SOL    OH233725   4.266   4.691   7.778  0.0829 -0.7302 -0.3838
 2509SOL     H133726   4.229   4.707   7.691  0.6900 -1.0551 -0.7000
 2509SOL     H233727   4.213   4.746   7.836 -0.6834 -0.9320 -0.8814
 2510SOL    OH233728   1.899   7.803   7.214 -0.4600  0.4617 -0.4618
 2510SOL     H133729   1.859   7.874   7.264 -0.2981  1.2436 -1.4094
 2510SOL     H233730   1.855   7.724   7.245  1.6850  0.5500  3.0049
 2511SOL    OH233731   0.005   6.713   1.442 -0.3499 -0.3923 -0.6651
 2511SOL     H133732   0.046   6.739   1.359 -1.1584  1.4293 -0.5370
 2511SOL     H233733   0.049   6.767   1.508 -2.4364  1.0899 -0.4423
 2512SOL    OH233734   1.854   4.368   2.410  0.0553  0.2614  0.0013
 2512SOL     H133735   1.947   4.351   2.396 -0.1135  0.3678 -1.2476
 2512SOL     H233736   1.830   4.312   2.484  0.4517 -1.9514 -1.4949
 2513SOL    OH233737   2.896   1.352   6.982  0.2029  0.3653 -0.2906
 2513SOL     H133738   2.966   1.398   7.029 -0.8957  2.3125 -0.5613
 2513SOL     H233739   2.816   1.394   7.011 -0.6923 -0.2474 -1.8658
 2514SOL    OH233740   2.295   1.119   1.667  0.4728 -0.0441 -0.5948
 2514SOL     H133741   2.211   1.137   1.625  0.9406  0.8229 -1.1889
 2514SOL     H233742   2.314   1.199   1.717  1.9033  0.5959 -2.1061
 2515SOL    OH233743   7.014   0.270   6.759  0.4439 -0.2629 -0.7695
 2515SOL     H133744   7.015   0.366   6.754 -0.0816 -0.2662 -0.9358
 2515SOL     H233745   6.923   0.248   6.777  0.9411 -0.6235  1.4778
 2516SOL    OH233746   2.185   6.830   0.835 -0.0296  0.6207 -0.2401
 2516SOL     H133747   2.145   6.789   0.759 -0.4662 -1.8564  1.2691
 2516SOL     H233748   2.279   6.819   0.823 -0.1530 -1.1367  0.2947
 2517SOL    OH233749   6.901   2.965   0.222  0.2283 -0.3029 -0.4714
 2517SOL     H133750   6.936   2.925   0.143  2.0790  1.5565 -0.6481
 2517SOL     H233751   6.858   3.045   0.192  0.0094 -0.1328  0.2736
 2518SOL    OH233752   3.830   6.484   2.081 -0.5444 -1.0151 -0.0954
 2518SOL     H133753   3.755   6.461   2.136 -0.1079  0.8451  1.3456
 2518SOL     H233754   3.906   6.462   2.134 -0.1096 -0.5914 -0.5453
 2519SOL    OH233755   3.762   0.834   0.457  0.5145  0.3538  0.1299
 2519SOL     H133756   3.753   0.844   0.551  0.2711 -2.0629  0.4009
 2519SOL     H233757   3.799   0.747   0.445 -2.1589 -0.5634 -2.0929
 2520SOL    OH233758   4.652   0.429   7.073 -0.4830 -0.3963  0.2923
 2520SOL     H133759   4.721   0.466   7.128 -0.9771 -0.9698  1.3271
 2520SOL     H233760   4.578   0.488   7.086 -0.4518 -0.2685 -0.1257
 2521SOL    OH233761   1.125   3.530   7.163  0.2652  0.7243  0.4375
 2521SOL     H133762   1.155   3.500   7.077  0.6661  1.1540  0.4302
 2521SOL     H233763   1.198   3.510   7.222  0.5902  1.8195  0.4111
 2522SOL    OH233764   2.205   3.505   7.072  0.6890  0.0435 -0.9458
 2522SOL     H133765   2.262   3.447   7.123 -1.3042 -1.2450 -0.1100
 2522SOL     H233766   2.243   3.592   7.084  1.9198 -0.6435  0.3552
 2523SOL    OH233767   3.398   1.717   7.055  0.1470  0.1990 -0.3076
 2523SOL     H133768   3.449   1.727   6.975 -1.1475 -0.4297 -1.2272
 2523SOL     H233769   3.361   1.804   7.071 -1.4584 -0.1999 -1.6930
 2524SOL    OH233770   7.914   4.063   2.265  0.3333 -0.5892 -0.2199
 2524SOL     H133771   7.847   4.042   2.201  0.8831  1.3489 -1.4531
 2524SOL     H233772   7.923   4.158   2.261  1.5904 -0.6112  1.5052
 2525SOL    OH233773   2.174   1.903   6.081 -0.0661  0.4103 -0.9768
 2525SOL     H133774   2.206   1.891   5.991 -1.2804  0.2782 -1.3983
 2525SOL     H233775   2.103   1.839   6.090  0.4914 -0.0409  0.3090
 2526SOL    OH233776   4.695   1.594   5.849 -0.1717 -0.2422  0.4153
 2526SOL     H133777   4.610   1.628   5.876 -0.6973  0.3993 -1.9072
 2526SOL     H233778   4.739   1.669   5.808  0.9166 -0.9321  0.3014
 2527SOL    OH233779   2.712   7.142   6.285 -0.0209  0.7241 -0.3241
 2527SOL     H133780   2.619   7.147   6.308 -0.0341 -1.3122  0.1651
 2527SOL     H233781   2.738   7.233   6.271 -2.0915  1.3203 -0.4876
 2528SOL    OH233782   1.323   5.417   2.519  0.0959  0.1564  0.5197
 2528SOL     H133783   1.316   5.457   2.605 -0.2357 -0.5712  0.8356
 2528SOL     H233784   1.246   5.448   2.471 -1.1165 -1.5056  1.3534
 2529SOL    OH233785   1.151   3.162   6.919  0.3089 -0.2318  0.5698
 2529SOL     H133786   1.081   3.101   6.941  1.6813 -2.3308 -0.6350
 2529SOL     H233787   1.155   3.160   6.823 -0.0764  2.3188  0.4698
 2530SOL    OH233788   1.228   0.999   7.743 -0.1357 -0.2717 -0.0580
 2530SOL     H133789   1.276   1.072   7.782 -0.6472 -0.4728  0.9689
 2530SOL     H233790   1.137   1.013   7.771 -0.7700  0.3766 -2.3740
 2531SOL    OH233791   0.451   3.394   6.838  0.1544 -0.0595 -0.4185
 2531SOL     H133792   0.412   3.341   6.769 -0.7353  1.2239 -0.9193
 2531SOL     H233793   0.515   3.336   6.880 -0.3925 -1.3297 -1.3187
 2532SOL    OH233794   3.350   3.589   6.682  0.4584 -0.6304 -0.3287
 2532SOL     H133795   3.340   3.538   6.762  1.8824 -0.1212  0.1642
 2532SOL     H233796   3.321   3.677   6.705  1.4219 -0.3404 -0.2089
 2533SOL    OH233797   5.321   5.352   1.415 -0.4396  0.0806  0.1312
 2533SOL     H133798   5.263   5.395   1.478  0.4687  0.0801  0.9683
 2533SOL     H233799   5.288   5.381   1.330 -1.3979  0.4324  0.6045
 2534SOL    OH233800   4.944   4.117   1.461 -0.2897 -0.2008  0.1850
 2534SOL     H133801   4.982   4.187   1.514 -0.7666 -0.9611  1.5641
 2534SOL     H233802   5.004   4.044   1.471 -0.8505 -0.6392  0.4291
 2535SOL    OH233803   1.237   5.268   7.738  0.0214  0.5958 -0.2663
 2535SOL     H133804   1.239   5.276   7.833  0.9973  0.4213 -0.2679
 2535SOL     H233805   1.147   5.243   7.718  0.3362 -1.5273  0.7986
 2536SOL    OH233806   4.568   1.829   6.732  0.0135 -0.3158 -0.1595
 2536SOL     H133807   4.479   1.860   6.744 -0.0354 -1.3193  2.4194
 2536SOL     H233808   4.622   1.889   6.783  0.6503 -0.6256 -0.4531
 2537SOL    OH233809   0.926   4.453   6.969  0.4856  0.1116  0.5880
 2537SOL     H133810   0.943   4.401   7.047  0.1193  0.9887  1.2556
 2537SOL     H233811   0.835   4.436   6.948  0.8637 -0.9237 -0.2527
 2538SOL    OH233812   1.009   0.622   7.435 -0.2966 -0.4500 -0.3875
 2538SOL     H133813   0.939   0.558   7.422 -1.2105 -0.2835  3.1013
 2538SOL     H233814   1.082   0.571   7.471  0.0580  0.0116 -0.4470
 2539SOL    OH233815   0.078   7.754   8.016 -0.7747  0.5387 -0.3970
 2539SOL     H133816   0.018   7.812   8.062 -1.2394 -0.0113 -0.3063
 2539SOL     H233817   0.132   7.716   8.085  0.7721  2.2572 -0.6185
 2540SOL    OH233818   1.146   4.907   1.468 -0.5483  0.3914 -0.1483
 2540SOL     H133819   1.198   4.840   1.425 -0.6094  0.0681  0.2788
 2540SOL     H233820   1.060   4.867   1.480 -0.7606  0.7601 -0.4363
 2541SOL    OH233821   7.266   5.381   1.711  0.0169 -0.8270 -0.1361
 2541SOL     H133822   7.205   5.307   1.717 -0.6098 -0.4163 -1.2725
 2541SOL     H233823   7.214   5.457   1.738  0.5925 -0.7538  0.7923
 2542SOL    OH233824   2.973   6.621   6.739  0.0181 -0.2883  0.5691
 2542SOL     H133825   2.908   6.560   6.704 -1.0793  0.2143  1.7133
 2542SOL     H233826   2.953   6.705   6.698  1.6930 -0.7097 -1.2087
 2543SOL    OH233827   7.600   2.080   7.114 -0.4935 -0.3679 -0.3486
 2543SOL     H133828   7.609   2.176   7.117 -1.1321 -0.3206  0.1532
 2543SOL     H233829   7.558   2.058   7.197  2.9645 -1.4581  1.2056
 2544SOL    OH233830   4.997   0.277   6.065  0.7509  0.0947 -0.4261
 2544SOL     H133831   5.069   0.235   6.112 -0.2889  0.7620  1.7917
 2544SOL     H233832   4.972   0.212   5.998  0.2935 -2.1640  1.8478
 2545SOL    OH233833   1.250   0.015   6.606  0.0949 -0.8394  0.4087
 2545SOL     H133834   1.226   0.015   6.699  1.6048 -1.1850  0.8118
 2545SOL     H233835   1.196   0.083   6.567 -1.1670 -1.2615  1.3776
 2546SOL    OH233836   0.944   5.800   5.500  0.1052  0.2583 -0.5883
 2546SOL     H133837   1.002   5.851   5.557  1.7812 -0.9235 -1.1694
 2546SOL     H233838   1.002   5.767   5.431 -1.3860 -0.4945 -1.4987
 2547SOL    OH233839   3.360   4.256   0.998 -0.1695 -0.2216  0.1299
 2547SOL     H133840   3.304   4.248   1.075 -1.0056  0.9722 -0.3306
 2547SOL     H233841   3.299   4.250   0.924  0.1475  2.1171 -0.3604
 2548SOL    OH233842   2.496   0.996   6.733 -0.5092  0.0848 -0.4717
 2548SOL     H133843   2.426   0.941   6.769  1.7574 -3.4082 -1.1483
 2548SOL     H233844   2.543   1.027   6.810  0.8977 -2.7122 -0.1355
 2549SOL    OH233845   5.872   6.190   0.739 -0.2224 -0.1569  0.1699
 2549SOL     H133846   5.855   6.096   0.747  0.4069 -0.1942  1.1860
 2549SOL     H233847   5.942   6.197   0.673 -0.3412 -0.3934  0.0198
 2550SOL    OH233848   3.953   7.604   7.809 -0.0313  0.2708 -0.1830
 2550SOL     H133849   3.922   7.674   7.867 -0.9183  0.0672 -0.3993
 2550SOL     H233850   3.905   7.527   7.838  1.7151 -0.5042  0.7509
 2551SOL    OH233851   5.967   7.422   2.299  0.5356 -0.0793 -0.2293
 2551SOL     H133852   5.927   7.496   2.345 -0.9020 -2.0069  1.7700
 2551SOL     H233853   5.987   7.359   2.368 -1.4115 -2.9769 -2.2031
 2552SOL    OH233854   6.681   1.640   7.274 -0.2574  0.1768  0.2678
 2552SOL     H133855   6.645   1.573   7.331 -0.1358  0.1243  0.2821
 2552SOL     H233856   6.756   1.675   7.321 -0.7420  0.8261  0.5793
 2553SOL    OH233857   3.562   6.048   0.557 -0.0311  0.5487 -0.3266
 2553SOL     H133858   3.616   5.986   0.507 -0.2970 -0.1701  0.2624
 2553SOL     H233859   3.602   6.133   0.540 -1.2444  0.5865 -3.2633
 2554SOL    OH233860   1.309   3.923   7.221 -0.3452  0.1716  0.0081
 2554SOL     H133861   1.289   3.935   7.314 -1.1629  3.1359 -0.4919
 2554SOL     H233862   1.240   3.863   7.190 -0.5616 -0.1735  1.1225
 2555SOL    OH233863   1.009   4.926   1.941  0.0487  0.3016  0.0161
 2555SOL     H133864   0.941   4.862   1.918 -1.1644  1.1257  1.2203
 2555SOL     H233865   0.962   5.009   1.948  1.1101  0.7946  1.3353
 2556SOL    OH233866   4.747   4.354   0.880 -0.0147  0.8684 -0.2460
 2556SOL     H133867   4.745   4.288   0.811  1.1885  0.7976 -0.2327
 2556SOL     H233868   4.685   4.323   0.946  0.5998 -0.3038 -0.2089
 2557SOL    OH233869   1.745   1.681   6.729 -0.6061  0.1695  0.1816
 2557SOL     H133870   1.834   1.666   6.697 -0.1420  0.8980  1.0948
 2557SOL     H233871   1.748   1.770   6.765 -1.5040 -0.0872  0.8956
 2558SOL    OH233872   0.790   0.873   1.346 -0.7877 -0.2269 -0.0495
 2558SOL     H133873   0.852   0.838   1.282 -1.1574 -0.7771 -0.1115
 2558SOL     H233874   0.826   0.847   1.431 -1.5983 -1.7005 -0.1253
 2559SOL    OH233875   1.747   5.360   6.210  0.0680  0.6087  0.5080
 2559SOL     H133876   1.727   5.347   6.117  2.5350 -0.1906  0.0522
 2559SOL     H233877   1.747   5.272   6.247 -0.5635  0.8974  1.2081
 2560SOL    OH233878   0.192   3.392   0.894 -0.0421  0.7967  0.4488
 2560SOL     H133879   0.149   3.318   0.936 -0.4003  0.2940 -0.7879
 2560SOL     H233880   0.126   3.461   0.894  0.3712  1.2090  1.8185
 2561SOL    OH233881   3.732   6.350   6.383  0.5447 -0.8795 -0.1014
 2561SOL     H133882   3.756   6.391   6.466  0.3479 -0.2157 -0.3748
 2561SOL     H233883   3.636   6.351   6.383  0.5459  1.1480 -1.3424
 2562SOL    OH233884   7.370   2.065   6.714  0.7319 -0.8636 -0.4994
 2562SOL     H133885   7.395   1.976   6.736 -0.7744 -1.5471 -1.4714
 2562SOL     H233886   7.289   2.056   6.663  1.1347  0.9854 -1.5206
 2563SOL    OH233887   2.793   7.524   6.925  0.7872  0.3983  0.0816
 2563SOL     H133888   2.746   7.517   7.008 -0.1134 -2.0466 -0.5670
 2563SOL     H233889   2.732   7.568   6.866 -0.2668 -1.6521 -0.4126
 2564SOL    OH233890   1.712   2.946   6.981  0.2660 -0.0894  0.3212
 2564SOL     H133891   1.699   2.862   7.024 -1.2414 -1.2400 -2.2874
 2564SOL     H233892   1.806   2.962   6.988  0.8906 -2.9673 -0.8407
 2565SOL    OH233893   1.712   5.230   2.315  0.4710  0.1993 -0.0080
 2565SOL     H133894   1.727   5.186   2.398  2.3112 -1.0368 -0.9563
 2565SOL     H233895   1.768   5.307   2.317  1.8139 -0.7273 -0.7461
 2566SOL    OH233896   1.087   6.918   0.185 -0.2780  0.1073 -0.0646
 2566SOL     H133897   1.005   6.918   0.136 -0.4999  1.0737  0.2967
 2566SOL     H233898   1.152   6.883   0.124 -0.7055  0.5833 -0.7982
 2567SOL    OH233899   6.406   1.037   0.210 -0.2843 -0.2532 -0.2863
 2567SOL     H133900   6.371   1.058   0.296  0.0815 -0.4939 -0.0783
 2567SOL     H233901   6.420   1.121   0.168 -1.0746 -0.1556 -0.3510
 2568SOL    OH233902   4.753   5.257   0.933 -0.4213  0.1924  0.1031
 2568SOL     H133903   4.739   5.334   0.878 -1.4522  1.3697  1.9621
 2568SOL     H233904   4.667   5.215   0.938 -0.0249 -0.6634 -0.2944
 2569SOL    OH233905   7.154   4.875   0.991 -0.1370 -0.4520 -0.4245
 2569SOL     H133906   7.108   4.890   0.908  0.2944  0.3780 -0.5149
 2569SOL     H233907   7.246   4.892   0.971  0.2288 -2.1572 -0.2560
 2570SOL    OH233908   5.152   4.071   0.226 -0.2936 -0.9723  0.0481
 2570SOL     H133909   5.119   4.014   0.156 -1.1580 -1.1713  0.6123
 2570SOL     H233910   5.178   4.151   0.181 -0.8038 -1.1139 -0.5124
 2571SOL    OH233911   3.695   7.573   0.327 -0.1786 -0.4310  0.3592
 2571SOL     H133912   3.785   7.569   0.358  0.3969 -0.9069 -1.3402
 2571SOL     H233913   3.686   7.662   0.293  1.3204 -1.9478 -4.3095
 2572SOL    OH233914   7.064   0.778   1.003 -0.6309 -0.5239 -0.1447
 2572SOL     H133915   6.980   0.825   1.003 -0.2858  0.1141 -1.7199
 2572SOL     H233916   7.043   0.689   0.975 -0.5711  0.0727 -2.1735
 2573SOL    OH233917   4.531   5.950   1.494  0.0519  0.6524 -0.3206
 2573SOL     H133918   4.578   5.913   1.419 -0.0803  0.8491 -0.5014
 2573SOL     H233919   4.450   5.984   1.457 -0.8424 -0.8787  0.2017
 2574SOL    OH233920   0.899   5.454   6.967  0.0960  0.5488 -0.1085
 2574SOL     H133921   0.831   5.388   6.955  0.6331  0.0654 -0.6128
 2574SOL     H233922   0.892   5.510   6.889 -0.7054  1.4116  0.5803
 2575SOL    OH233923   0.396   3.473   7.115 -0.3270  0.7416  0.8294
 2575SOL     H133924   0.450   3.434   7.183  0.8830  1.1974  0.1413
 2575SOL     H233925   0.392   3.405   7.047 -0.0424  0.9711  0.5827
 2576SOL    OH233926   0.148   0.360   0.908 -0.7019  0.1103 -0.7927
 2576SOL     H133927   0.174   0.440   0.954 -0.3395 -1.3822  1.7133
 2576SOL     H233928   0.195   0.364   0.825  3.2868  0.1730  1.3122
 2577SOL    OH233929   4.132   4.799   8.015 -0.5066  0.0825  0.1939
 2577SOL     H133930   4.060   4.738   8.030 -0.2258 -0.1836  0.4593
 2577SOL     H233931   4.092   4.886   8.024 -0.3569 -0.0503  2.5499
 2578SOL    OH233932   7.308   4.820   0.010 -0.9951  0.4657  0.1103
 2578SOL     H133933   7.215   4.807   0.028 -0.8276 -0.6374  0.1993
 2578SOL     H233934   7.353   4.758   0.068 -0.2217  0.6848 -0.2432
 2579SOL    OH233935   7.293   7.760   7.021 -0.4847  0.3497 -0.3485
 2579SOL     H133936   7.346   7.691   6.982  0.3378 -0.7247  2.5521
 2579SOL     H233937   7.357   7.823   7.054 -1.0963  0.2710  1.0011
 2580SOL    OH233938   5.563   1.465   7.065  0.0555 -0.3272  0.0011
 2580SOL     H133939   5.655   1.474   7.041 -0.5554  1.1308 -1.9827
 2580SOL     H233940   5.516   1.521   7.002 -1.7837  2.8951  4.0294
 2581SOL    OH233941   6.207   5.122   0.646  0.3045 -0.2230  0.1382
 2581SOL     H133942   6.164   5.188   0.591  0.3575  0.3449  0.7640
 2581SOL     H233943   6.282   5.093   0.594 -0.2877 -0.5165 -0.5589
 2582SOL    OH233944   2.198   2.465   8.080 -0.4770 -0.2877  0.1389
 2582SOL     H133945   2.113   2.426   8.056  1.1948 -3.2569 -1.1996
 2582SOL     H233946   2.221   2.424   8.163  0.2301 -0.4371 -0.1276
 2583SOL    OH233947   5.791   7.821   0.997 -0.5416 -0.0698 -0.1452
 2583SOL     H133948   5.779   7.740   1.047 -0.2564 -0.3484 -0.5288
 2583SOL     H233949   5.864   7.802   0.937 -1.3246  0.0115 -1.1530
 2584SOL    OH233950   4.737   2.762   1.171  0.5917  0.1932 -0.1891
 2584SOL     H133951   4.642   2.749   1.164  0.6787 -0.5323 -0.0321
 2584SOL     H233952   4.774   2.675   1.162  1.2347  0.4410  0.0296
 2585SOL    OH233953   4.871   0.536   7.203 -0.3392 -0.0013  0.3317
 2585SOL     H133954   4.920   0.500   7.130  0.2376 -0.1584  0.7953
 2585SOL     H233955   4.923   0.515   7.280 -0.8115  0.3935  0.7635
 2586SOL    OH233956   0.407   3.617   2.265  0.5018 -0.6481 -0.3749
 2586SOL     H133957   0.383   3.676   2.335  0.9652  0.2733 -0.9902
 2586SOL     H233958   0.497   3.640   2.243  0.1842 -0.5543 -1.6345
 2587SOL    OH233959   0.034   2.921   7.085  0.2674  0.3159 -0.1308
 2587SOL     H133960  -0.043   2.896   7.136 -0.0597  1.1236 -0.2083
 2587SOL     H233961   0.032   2.865   7.008  0.0362 -0.0180  0.1204
 2588SOL    OH233962   3.041   1.673   1.342 -0.3117 -0.2051  0.7488
 2588SOL     H133963   3.046   1.663   1.247 -1.3901 -2.6247  0.8979
 2588SOL     H233964   2.967   1.617   1.368  1.0644 -0.9718  3.1769
 2589SOL    OH233965   6.014   5.272   6.405  0.1480  0.2535  0.3933
 2589SOL     H133966   5.949   5.269   6.336  1.2764  3.7118 -0.9585
 2589SOL     H233967   5.963   5.280   6.486 -1.1455 -2.1650 -0.1559
 2590SOL    OH233968   1.384   3.683   7.548  0.1234 -0.1398  0.0546
 2590SOL     H133969   1.459   3.699   7.491 -0.6847 -1.8053 -1.5092
 2590SOL     H233970   1.390   3.751   7.615  2.1322  0.7082 -0.9552
 2591SOL    OH233971   5.932   3.853   2.118  0.3575  0.5857 -0.0829
 2591SOL     H133972   5.899   3.763   2.127 -1.2431  1.3545  1.8980
 2591SOL     H233973   5.915   3.875   2.026  1.2433 -1.3079 -0.7239
 2592SOL    OH233974   6.523   5.897   0.262  0.4245 -0.1027 -0.1178
 2592SOL     H133975   6.444   5.946   0.239 -0.1378 -1.6482 -1.5682
 2592SOL     H233976   6.587   5.923   0.196  1.6487  2.2521  1.8852
 2593SOL    OH233977   5.550   7.212   7.633  0.1578  0.1603 -0.1118
 2593SOL     H133978   5.602   7.131   7.638 -1.5058 -0.9456 -0.4952
 2593SOL     H233979   5.474   7.195   7.689 -0.8100  0.9994 -1.1632
 2594SOL    OH233980   0.791   4.257   1.121 -0.2382 -0.5992  0.0685
 2594SOL     H133981   0.732   4.181   1.122 -1.8667  0.5094 -3.1649
 2594SOL     H233982   0.755   4.317   1.186 -1.0030 -1.1357  0.1432
 2595SOL    OH233983   5.288   5.643   6.278  0.1100  0.0762 -0.1881
 2595SOL     H133984   5.241   5.724   6.260 -0.2081  0.3483  1.8166
 2595SOL     H233985   5.369   5.650   6.227  0.1208  1.6905  0.0451
 2596SOL    OH233986   5.535   5.594   6.431  0.2175 -0.1773  0.6748
 2596SOL     H133987   5.445   5.563   6.440 -0.1759  1.2925  1.9983
 2596SOL     H233988   5.547   5.605   6.336  0.0042 -3.1739  0.2586
 2597SOL    OH233989   5.649   0.297   1.172 -0.3123  0.4374 -0.3038
 2597SOL     H133990   5.728   0.351   1.169  0.1489 -0.1823  0.4099
 2597SOL     H233991   5.646   0.253   1.087  0.5259 -0.1036 -0.0627
 2598SOL    OH233992   7.646   5.000   0.546 -0.4354 -0.5083  0.3410
 2598SOL     H133993   7.733   4.967   0.567 -0.3184 -0.5924 -0.2671
 2598SOL     H233994   7.633   5.073   0.608 -0.3673 -1.1581  1.1291
 2599SOL    OH233995   4.002   2.436   7.408 -0.1641 -0.2297 -0.3528
 2599SOL     H133996   3.929   2.391   7.366 -0.7756  0.0975  0.3462
 2599SOL     H233997   4.023   2.509   7.350 -2.0337  1.1491  0.6789
 2600SOL    OH233998   2.589   3.472   6.272  0.3571 -0.4960  0.1871
 2600SOL     H133999   2.582   3.417   6.194  0.7329  1.3300 -1.1765
 2600SOL     H234000   2.507   3.520   6.276  0.7022  0.0910  0.3907
 2601SOL    OH234001   2.197   5.777   7.209 -0.1065  0.2282  0.2979
 2601SOL     H134002   2.252   5.812   7.140  0.0498  0.0788  0.3451
 2601SOL     H234003   2.120   5.834   7.211  0.1631  0.5869  0.4010
 2602SOL    OH234004   4.173   0.699   7.387  0.1174 -0.3667 -0.1574
 2602SOL     H134005   4.171   0.767   7.454  0.6234 -1.2106  0.7189
 2602SOL     H234006   4.211   0.743   7.311  2.4333 -0.2105  1.0422
 2603SOL    OH234007   4.384   4.108   0.364 -0.1448  0.0572 -0.7049
 2603SOL     H134008   4.464   4.076   0.322  0.0149  1.0978 -1.2124
 2603SOL     H234009   4.314   4.060   0.321  0.1834 -0.6630 -0.4485
 2604SOL    OH234010   6.429   1.037   7.354 -0.6563 -0.4694  0.0330
 2604SOL     H134011   6.356   1.075   7.403  1.1783  1.9216  1.0026
 2604SOL     H234012   6.507   1.061   7.405  1.0719 -0.1967 -2.6588
 2605SOL    OH234013   0.326   5.704   1.266  0.5031 -0.2670 -0.0825
 2605SOL     H134014   0.414   5.719   1.300  0.5862  0.3035 -0.5338
 2605SOL     H234015   0.268   5.736   1.336  0.6401 -1.0554  0.4019
 2606SOL    OH234016   1.116   2.519   6.098 -0.0023 -0.1514 -0.0304
 2606SOL     H134017   1.198   2.568   6.101  0.1993 -0.4568 -0.4173
 2606SOL     H234018   1.126   2.450   6.164  1.0251 -1.6635 -1.7062
 2607SOL    OH234019   3.065   5.029   7.981  0.3063 -0.1230  0.1635
 2607SOL     H134020   3.041   4.951   7.930 -1.5472  0.4695  0.0906
 2607SOL     H234021   3.006   5.028   8.056  1.3927  0.3278  1.0349
 2608SOL    OH234022   0.535   5.048   7.084  0.6346 -0.4549 -0.0103
 2608SOL     H134023   0.621   5.051   7.126  0.0313 -2.1165  1.3843
 2608SOL     H234024   0.548   4.989   7.010  0.5090 -1.3151  0.6496
 2609SOL    OH234025   4.684   0.901   6.729  0.4023  0.4714 -0.6085
 2609SOL     H134026   4.712   0.951   6.806 -0.9693  1.3741 -0.6695
 2609SOL     H234027   4.746   0.828   6.723  0.7187  0.5814  1.1560
 2610SOL    OH234028   5.081   6.493   0.104  0.3962  0.0893  0.9771
 2610SOL     H134029   4.992   6.463   0.086  0.9226 -1.6937  1.2366
 2610SOL     H234030   5.073   6.545   0.184 -0.8759  2.5107 -0.6570
 2611SOL    OH234031   1.096   3.644   7.473  0.4277  0.2634  0.0873
 2611SOL     H134032   1.089   3.614   7.382 -0.6058  2.3608 -0.5766
 2611SOL     H234033   1.187   3.628   7.497  1.3532  1.7890 -2.1431
 2612SOL    OH234034   7.387   4.640   1.210  0.0079  0.5317 -0.3736
 2612SOL     H134035   7.351   4.551   1.206  0.1766  0.4420  0.0443
 2612SOL     H234036   7.427   4.653   1.125 -0.3869  0.3632 -0.5872
 2613SOL    OH234037   3.976   5.708   1.240 -0.2361 -0.2369 -0.0859
 2613SOL     H134038   4.040   5.740   1.303  0.3145  1.4602 -1.4615
 2613SOL     H234039   3.983   5.768   1.166 -1.6972 -1.4852 -1.2794
 2614SOL    OH234040   2.035   7.863   1.406 -0.2978  0.6583  0.0497
 2614SOL     H134041   1.997   7.776   1.393 -0.7051  0.9242 -0.5559
 2614SOL     H234042   2.092   7.877   1.331 -0.4380  1.0233  0.0070
 2615SOL    OH234043   6.896   6.671   6.984 -0.0450  0.7220  0.4227
 2615SOL     H134044   6.863   6.756   7.013 -0.8328  1.3395 -2.0898
 2615SOL     H234045   6.898   6.678   6.888  1.2100 -1.6071  0.2405
 2616SOL    OH234046   5.504   2.217   2.729 -0.3147 -0.0296  0.6543
 2616SOL     H134047   5.582   2.207   2.675 -1.2821 -1.0036 -0.5750
 2616SOL     H234048   5.538   2.250   2.813  1.3098  0.4070 -0.1426
 2617SOL    OH234049   3.380   1.170   8.056 -0.5685  0.1582 -0.5956
 2617SOL     H134050   3.341   1.228   8.121 -1.6674  1.5964 -2.4787
 2617SOL     H234051   3.316   1.100   8.043  0.7654 -1.5581  1.6897
 2618SOL    OH234052   5.552   6.158   7.569 -0.0336 -0.0130 -0.3686
 2618SOL     H134053   5.560   6.072   7.528 -1.0210 -1.0120  1.4796
 2618SOL     H234054   5.628   6.207   7.537  1.3624 -2.0633 -0.2324
 2619SOL    OH234055   7.341   5.303   1.202 -0.2718 -0.7589 -0.3340
 2619SOL     H134056   7.305   5.220   1.232 -1.7631 -0.1694 -0.4481
 2619SOL     H234057   7.282   5.369   1.237  0.6471  0.2290 -0.6225
 2620SOL    OH234058   5.093   7.313   7.094 -0.2182 -0.1003 -0.5932
 2620SOL     H134059   5.161   7.251   7.069  0.5848  0.1703  0.8625
 2620SOL     H234060   5.086   7.373   7.020  1.4217  0.1123 -0.5826
 2621SOL    OH234061   4.089   1.056   0.780  0.3874  0.1826 -0.1873
 2621SOL     H134062   4.094   0.975   0.831  0.1799  0.6383  0.5556
 2621SOL     H234063   4.038   1.116   0.834  1.3403  1.1218 -0.3117
 2622SOL    OH234064   1.893   1.459   1.695 -0.4967  0.0550  0.1887
 2622SOL     H134065   1.897   1.364   1.694 -0.3611  0.0641 -1.7841
 2622SOL     H234066   1.982   1.487   1.673 -1.1893  0.5972 -2.0088
 2623SOL    OH234067   4.156   1.235   7.995 -0.1168  0.4039  0.2588
 2623SOL     H134068   4.163   1.331   7.992  1.9503  0.2147 -3.0012
 2623SOL     H234069   4.084   1.219   8.057 -2.2324  4.1354 -1.0270
 2624SOL    OH234070   3.891   5.009   2.383 -0.1368  0.9718  0.2051
 2624SOL     H134071   3.966   4.949   2.379 -1.2963 -0.4620 -0.5753
 2624SOL     H234072   3.925   5.092   2.351  0.5499 -0.2419 -2.3095
 2625SOL    OH234073   3.331   3.303   1.599  0.1270  0.0134  0.0178
 2625SOL     H134074   3.385   3.312   1.520  0.4535  1.5022  0.4029
 2625SOL     H234075   3.241   3.316   1.569  0.1209 -0.7286 -0.3172
 2626SOL    OH234076   5.331   3.681   1.271 -0.4323  0.1516 -0.1696
 2626SOL     H134077   5.250   3.726   1.296 -0.1547  0.6550 -0.1613
 2626SOL     H234078   5.305   3.619   1.203 -1.6051 -2.8239  2.8441
 2627SOL    OH234079   5.023   1.563   1.068  0.1240  0.0409  0.2692
 2627SOL     H134080   4.933   1.593   1.053  0.7696  1.2863 -1.2021
 2627SOL     H234081   5.040   1.584   1.160 -1.2125 -0.5775  0.6806
 2628SOL    OH234082   5.799   3.676   0.140 -0.6497  0.0698  0.4561
 2628SOL     H134083   5.877   3.664   0.086 -0.4096  2.0624  0.3293
 2628SOL     H234084   5.803   3.604   0.203  1.3768  0.2000  0.5370
 2629SOL    OH234085   1.190   0.765   0.098  0.2089  0.0986  0.5710
 2629SOL     H134086   1.242   0.822   0.041  0.7678 -1.7989 -0.8684
 2629SOL     H234087   1.248   0.746   0.172  0.8543 -0.3628 -0.0376
 2630SOL    OH234088   4.174   1.753   6.530  0.4892 -0.0826 -0.0671
 2630SOL     H134089   4.105   1.805   6.571  0.2295  0.0578 -0.6684
 2630SOL     H234090   4.206   1.696   6.599 -0.1598 -0.0741  0.2449
 2631SOL    OH234091   6.553   3.024   7.424 -0.0047  0.0000 -0.1758
 2631SOL     H134092   6.578   3.104   7.379  0.2170 -0.8290 -1.5369
 2631SOL     H234093   6.458   3.032   7.435 -0.1179 -0.0007 -1.1708
 2632SOL    OH234094   5.571   2.322   0.082  0.0709  0.2001 -0.0272
 2632SOL     H134095   5.584   2.318   0.177  1.3598  2.1997 -0.0882
 2632SOL     H234096   5.482   2.290   0.069 -0.4116  0.6517  1.9474
 2633SOL    OH234097   7.934   0.432   1.450 -0.2291 -0.7394 -0.3307
 2633SOL     H134098   8.005   0.460   1.391  0.0507 -1.6651 -0.4346
 2633SOL     H234099   7.870   0.391   1.392 -0.1442 -1.2790 -0.0383
 2634SOL    OH234100   1.976   4.838   1.752 -0.5226  0.1816  0.0181
 2634SOL     H134101   1.887   4.850   1.782 -0.5580 -0.6000  0.2507
 2634SOL     H234102   1.970   4.837   1.656 -0.3974  2.7525 -0.0368
 2635SOL    OH234103   0.782   7.503   0.719 -0.0920 -0.4017 -0.2637
 2635SOL     H134104   0.868   7.538   0.742 -0.0219 -1.0229  0.4289
 2635SOL     H234105   0.802   7.425   0.667 -0.2335 -0.9233  0.4669
 2636SOL    OH234106   7.335   5.254   0.888  0.5270  0.4513 -0.4508
 2636SOL     H134107   7.361   5.254   0.980 -1.8098  0.5641  0.2420
 2636SOL     H234108   7.348   5.163   0.859  0.0384  0.1237  0.3500
 2637SOL    OH234109   4.829   4.077   2.163  0.2976 -0.0268  0.1322
 2637SOL     H134110   4.769   4.103   2.232  2.2840  0.6279  1.6536
 2637SOL     H234111   4.901   4.033   2.208  2.3939  1.7981 -1.3150
 2638SOL    OH234112   4.818   7.430   7.201  1.0836 -0.5437 -0.0762
 2638SOL     H134113   4.897   7.379   7.181  0.7313 -1.2440  0.2704
 2638SOL     H234114   4.765   7.423   7.121  1.2202 -0.3725 -0.1813
 2639SOL    OH234115   0.695   5.992   0.864  0.0202 -0.4030  0.3262
 2639SOL     H134116   0.610   5.994   0.907  0.2531 -0.3614  0.7912
 2639SOL     H234117   0.682   5.937   0.787 -0.5550  0.0221  0.1163
 2640SOL    OH234118   1.896   6.708   0.254 -0.5774  0.1129 -0.3638
 2640SOL     H134119   1.829   6.770   0.224  1.1516  2.2407 -0.0094
 2640SOL     H234120   1.974   6.730   0.204  0.4248 -0.9501  0.6793
 2641SOL    OH234121   0.038   3.334   0.510 -0.9659 -0.1044  0.1657
 2641SOL     H134122   0.090   3.409   0.539 -0.1043 -1.2003  1.5369
 2641SOL     H234123  -0.041   3.338   0.565 -0.5329 -0.6600  0.8508
 2642SOL    OH234124   4.991   6.113   6.679  0.3416  0.0983 -0.1857
 2642SOL     H134125   4.996   6.018   6.684  0.3968  0.0425 -1.2517
 2642SOL     H234126   4.909   6.135   6.724  0.5824 -0.4067  0.5067
 2643SOL    OH234127   2.624   0.994   6.990  0.1799  0.4008  0.2473
 2643SOL     H134128   2.602   0.902   6.992 -0.9946  0.6913  0.6839
 2643SOL     H234129   2.617   1.023   7.081  1.4663  0.7091  0.2658
 2644SOL    OH234130   1.715   6.550   5.564 -0.3580  0.0465  0.3831
 2644SOL     H134131   1.678   6.486   5.504  0.5597 -0.2859  0.1629
 2644SOL     H234132   1.642   6.576   5.619 -0.9300 -0.5617 -0.0782
 2645SOL    OH234133   2.659   6.641   7.871  0.0387  0.3123  0.2530
 2645SOL     H134134   2.735   6.607   7.919  0.6410 -1.7155 -2.0490
 2645SOL     H234135   2.584   6.617   7.926  0.9680  1.2809  1.9671
 2646SOL    OH234136   0.159   1.011   7.200  0.1115 -0.0943  0.0049
 2646SOL     H134137   0.127   0.942   7.259 -0.8913  1.2501  1.0612
 2646SOL     H234138   0.146   1.092   7.249  3.7158  0.6441 -0.1811
 2647SOL    OH234139   4.307   6.495   7.038  0.5076  0.0798 -0.5076
 2647SOL     H134140   4.358   6.553   7.094 -1.0510  0.7847  0.2302
 2647SOL     H234141   4.341   6.407   7.057  0.9011  0.4524  0.5570
 2648SOL    OH234142   5.753   1.312   6.888  0.1985  0.3800 -0.4334
 2648SOL     H134143   5.840   1.275   6.875 -0.2308  0.6638 -4.8736
 2648SOL     H234144   5.695   1.236   6.895  0.4124  0.1787 -0.8032
 2649SOL    OH234145   3.799   7.923   1.071 -0.3396  0.3989  0.2387
 2649SOL     H134146   3.798   7.871   0.990 -0.1637  0.6735  0.0592
 2649SOL     H234147   3.812   8.013   1.041  1.4921  0.2941  0.6950
 2650SOL    OH234148   5.696   7.719   1.582 -0.1691  0.4372 -0.2179
 2650SOL     H134149   5.740   7.799   1.553 -0.1457 -0.4271 -2.7342
 2650SOL     H234150   5.605   7.745   1.594  0.3907  1.5068  1.9266
 2651SOL    OH234151   6.538   4.086   7.919 -0.8036  0.2293 -0.0892
 2651SOL     H134152   6.602   4.120   7.857 -0.1432  2.7014  1.8565
 2651SOL     H234153   6.454   4.119   7.887 -0.6094  0.4823 -0.3407
 2652SOL    OH234154   2.164   6.861   5.572  0.1437 -0.6740  0.3931
 2652SOL     H134155   2.115   6.880   5.652  1.3583 -1.3973  1.3295
 2652SOL     H234156   2.197   6.772   5.585  1.8222 -0.1396 -0.1511
 2653SOL    OH234157   7.302   0.227   7.678 -0.2741 -0.3040  0.1222
 2653SOL     H134158   7.282   0.283   7.603  3.4506  1.1390  0.0932
 2653SOL     H234159   7.294   0.285   7.754  3.0994  0.2553  0.1335
 2654SOL    OH234160   5.010   3.979   2.363  0.4245  0.2580 -0.0978
 2654SOL     H134161   5.050   4.033   2.431  1.6221 -0.5674 -0.1438
 2654SOL     H234162   4.956   3.916   2.410  0.4630  0.3298  0.0409
 2655SOL    OH234163   7.522   1.063   7.472 -0.1869 -0.5420 -0.0715
 2655SOL     H134164   7.498   1.101   7.387 -0.4152  0.2057  0.3281
 2655SOL     H234165   7.501   1.130   7.536  1.2022 -0.6106  0.4779
 2656SOL    OH234166   3.822   4.102   0.469 -0.3454 -0.4355 -0.2251
 2656SOL     H134167   3.818   4.092   0.564  0.1640 -1.9820 -0.3669
 2656SOL     H234168   3.735   4.075   0.438 -0.7479  0.7274 -0.1606
 2657SOL    OH234169   1.121   6.982   6.752  0.1793  0.0507 -0.1697
 2657SOL     H134170   1.128   6.946   6.664  1.1824  0.4246 -0.2393
 2657SOL     H234171   1.186   6.934   6.803  1.5372  1.7631 -0.2653
 2658SOL    OH234172   7.484   7.156   1.464 -0.5388  0.3188  0.3018
 2658SOL     H134173   7.534   7.137   1.384 -1.0960  1.5532 -0.3575
 2658SOL     H234174   7.525   7.235   1.499 -0.8894  0.3087  0.7335
 2659SOL    OH234175   2.879   3.820   7.479  0.0301 -0.1290 -1.0530
 2659SOL     H134176   2.937   3.770   7.536 -1.4509 -0.8879 -0.1777
 2659SOL     H234177   2.804   3.762   7.465 -1.0344  1.2687 -1.2528
 2660SOL    OH234178   5.020   3.054   7.906 -0.1600  0.4759  0.0815
 2660SOL     H134179   4.952   3.061   7.972  0.2549  1.0875  0.4535
 2660SOL     H234180   5.097   3.022   7.953  0.1658  1.0197 -0.0747
 2661SOL    OH234181   1.878   4.546   7.234  0.0331  0.2651  0.4695
 2661SOL     H134182   1.797   4.547   7.284 -1.2887  1.7987 -1.6250
 2661SOL     H234183   1.892   4.638   7.209  1.0002 -0.3430 -1.3662
 2662SOL    OH234184   0.276   5.608   2.354 -0.2409  0.2100  0.0909
 2662SOL     H134185   0.313   5.555   2.425  1.0142 -2.1260 -2.2299
 2662SOL     H234186   0.191   5.568   2.335  0.4381 -0.6522 -1.2431
 2663SOL    OH234187   4.793   2.086   0.081  0.6740 -0.3778 -0.0101
 2663SOL     H134188   4.837   2.117   0.160  2.1895 -1.4739 -0.3797
 2663SOL     H234189   4.716   2.142   0.072  0.6916  0.0029  2.0196
 2664SOL    OH234190   4.071   7.633   6.450 -0.1894 -0.6526  0.6096
 2664SOL     H134191   4.037   7.721   6.435  0.5297 -0.4116  0.3642
 2664SOL     H234192   4.134   7.644   6.521 -0.9834 -1.1803  1.4019
 2665SOL    OH234193   6.999   0.512   5.826  0.4802  0.5330  0.3604
 2665SOL     H134194   6.935   0.492   5.758  1.3705 -3.1265  0.4930
 2665SOL     H234195   6.946   0.530   5.904 -0.4612  0.3043 -0.2207
 2666SOL    OH234196   0.542   6.633   6.385  0.0301  0.1194  0.0294
 2666SOL     H134197   0.499   6.664   6.306  0.0401 -0.6928 -0.3064
 2666SOL     H234198   0.634   6.624   6.361  0.1021  0.2528  0.2497
 2667SOL    OH234199   3.160   7.801   0.630 -0.2270  0.4106  0.4527
 2667SOL     H134200   3.254   7.809   0.613 -0.1585  0.1609  0.7006
 2667SOL     H234201   3.148   7.709   0.655 -0.4321  0.5972  1.0601
 2668SOL    OH234202   6.354   5.294   2.016  0.1995  0.3347  0.0048
 2668SOL     H134203   6.343   5.381   1.977  0.4958 -0.6654 -2.3820
 2668SOL     H234204   6.380   5.238   1.943  0.3531 -1.7003  1.5820
 2669SOL    OH234205   5.226   5.878   0.130  0.0414  0.0559 -0.0547
 2669SOL     H134206   5.284   5.813   0.090  0.1571  0.6055 -0.8024
 2669SOL     H234207   5.138   5.853   0.102  0.1854  0.8446 -1.2565
 2670SOL    OH234208   0.080   3.676   0.802 -0.1762  0.2657  0.9344
 2670SOL     H134209   0.099   3.740   0.870  0.8293 -0.2191  1.1160
 2670SOL     H234210   0.165   3.658   0.761 -0.3616 -1.3023  1.1984
 2671SOL    OH234211   3.004   7.422   5.819  0.1997  0.0204  0.1718
 2671SOL     H134212   3.035   7.368   5.746  0.8007  1.1768 -0.4306
 2671SOL     H234213   3.078   7.427   5.879 -0.1749 -0.6179  0.7099
 2672SOL    OH234214   6.547   4.342   1.416 -0.3223  0.8602 -0.5773
 2672SOL     H134215   6.599   4.387   1.349 -0.4904  0.7296 -0.7965
 2672SOL     H234216   6.466   4.316   1.371 -0.0997  0.0708 -0.5405
 2673SOL    OH234217   2.146   1.488   1.583  0.0575  0.3107 -0.1880
 2673SOL     H134218   2.191   1.569   1.605 -2.8617  2.1117 -0.4971
 2673SOL     H234219   2.159   1.478   1.488  0.1369  0.6265 -0.2112
 2674SOL    OH234220   4.582   2.524   1.615 -0.2882 -1.0039  0.2533
 2674SOL     H134221   4.591   2.596   1.677 -1.0453  0.9154 -1.8149
 2674SOL     H234222   4.655   2.536   1.554 -0.5546 -1.8492 -0.2367
 2675SOL    OH234223   7.346   3.075   6.640 -0.1439  0.2166 -0.4013
 2675SOL     H134224   7.425   3.058   6.589  0.9978  0.9959  1.0609
 2675SOL     H234225   7.274   3.055   6.581  1.1361 -2.4243 -1.1258
 2676SOL    OH234226   3.145   1.504   6.772 -0.0741  0.4959  0.0108
 2676SOL     H134227   3.060   1.530   6.737 -1.4863 -0.7645  2.3428
 2676SOL     H234228   3.137   1.517   6.867  1.9747 -0.5884  0.3779
 2677SOL    OH234229   0.883   2.539   7.827 -0.3554 -0.2146  0.7319
 2677SOL     H134230   0.964   2.490   7.842 -0.2253 -0.7241 -1.4098
 2677SOL     H234231   0.815   2.488   7.872  0.0223 -1.6097 -0.2322
 2678SOL    OH234232   0.514   5.708   2.224  0.1177  0.4063  0.8914
 2678SOL     H134233   0.533   5.701   2.131  0.5211  0.3597  0.9759
 2678SOL     H234234   0.419   5.720   2.228  0.1765  1.0328  0.4484
 2679SOL    OH234235   4.188   0.010   1.562 -0.3691  0.6966 -0.2418
 2679SOL     H134236   4.190  -0.064   1.500 -0.7212  1.8257 -1.6285
 2679SOL     H234237   4.224   0.083   1.512  0.5663  1.3339  1.3289
 2680SOL    OH234238   2.587   3.717   0.680 -0.2870 -0.2920  0.1818
 2680SOL     H134239   2.595   3.675   0.594 -1.3085  1.5215 -0.8110
 2680SOL     H234240   2.668   3.695   0.725 -1.4846 -4.8426  0.3733
 2681SOL    OH234241   2.354   1.127   8.045 -0.7198  0.0212  0.1294
 2681SOL     H134242   2.300   1.143   7.968 -1.1507  3.3007  1.0239
 2681SOL     H234243   2.318   1.048   8.084 -3.0321  0.5340 -0.8793
 2682SOL    OH234244   0.296   4.779   1.722 -0.1493 -0.3436  0.0356
 2682SOL     H134245   0.341   4.791   1.638 -0.3865  0.4499  0.0218
 2682SOL     H234246   0.272   4.686   1.722  1.7904 -0.8696  0.1991
 2683SOL    OH234247   2.624   1.868   8.194  0.5099  0.1954  0.3041
 2683SOL     H134248   2.579   1.814   8.128 -0.8596  1.0193  0.5361
 2683SOL     H234249   2.704   1.820   8.213 -0.4261 -1.5093  0.1176
 2684SOL    OH234250   7.899   6.032   2.615 -0.5650 -0.4944  0.2394
 2684SOL     H134251   7.933   6.105   2.667 -1.5566  0.6722 -0.7277
 2684SOL     H234252   7.952   5.956   2.642  0.7397  0.6576  0.9588
 2685SOL    OH234253   3.871   1.230   0.949 -0.0866 -0.2856  0.1353
 2685SOL     H134254   3.804   1.297   0.963 -1.4638 -1.2128 -1.7828
 2685SOL     H234255   3.952   1.280   0.935 -0.8624  0.9403 -0.0910
 2686SOL    OH234256   7.283   4.029   1.589 -0.4702  0.1308 -0.4484
 2686SOL     H134257   7.265   4.008   1.680 -0.6932  0.4505 -0.4224
 2686SOL     H234258   7.272   4.123   1.582  0.0784  0.1806 -0.6845
 2687SOL    OH234259   1.907   4.339   6.715 -0.1159  0.5389  0.3626
 2687SOL     H134260   1.897   4.376   6.803 -0.7237  0.5105  0.3067
 2687SOL     H234261   1.819   4.310   6.691 -0.0685  1.1277 -0.5217
 2688SOL    OH234262   6.547   3.156   6.576 -0.0913 -0.5014  0.3130
 2688SOL     H134263   6.465   3.148   6.528  0.1966  1.7624 -0.6367
 2688SOL     H234264   6.521   3.159   6.668 -0.9790 -0.9571  0.0779
 2689SOL    OH234265   3.681   6.567   8.136 -0.2129 -0.3137 -0.1495
 2689SOL     H134266   3.751   6.602   8.191 -0.5630  0.2598 -0.0667
 2689SOL     H234267   3.614   6.636   8.136 -1.4371 -1.4634  1.0038
 2690SOL    OH234268   7.305   2.514   5.873  0.0786 -0.5611 -0.7220
 2690SOL     H134269   7.303   2.420   5.856 -0.3428 -0.8369  0.7664
 2690SOL     H234270   7.214   2.537   5.892  0.2130  0.1022 -0.8630
 2691SOL    OH234271   6.975   5.466   6.513 -0.7066 -0.1682  0.0523
 2691SOL     H134272   6.929   5.417   6.444  0.6253  0.4696 -1.3088
 2691SOL     H234273   6.988   5.402   6.583 -1.3521 -1.0518 -0.6204
 2692SOL    OH234274   3.638   7.599   7.430  0.0149  0.2448  0.1214
 2692SOL     H134275   3.573   7.667   7.450 -1.6118 -0.9378 -1.0072
 2692SOL     H234276   3.618   7.528   7.492  0.8745  0.2602  0.4271
 2693SOL    OH234277   2.431   0.319   1.856  0.3160  0.1770 -0.1203
 2693SOL     H134278   2.343   0.299   1.888  0.6320 -0.1252  0.5629
 2693SOL     H234279   2.421   0.403   1.810 -0.2891  0.2409  0.1228
 2694SOL    OH234280   6.730   6.596   1.520  0.0895 -0.3006  0.4219
 2694SOL     H134281   6.704   6.645   1.441 -0.3329  1.2959  1.5155
 2694SOL     H234282   6.679   6.516   1.516  1.4789 -1.1172 -1.9003
 2695SOL    OH234283   7.927   3.013   7.981  0.4754 -0.2706 -0.2492
 2695SOL     H134284   7.836   2.983   7.975  0.5510 -1.2142  2.8513
 2695SOL     H234285   7.950   3.036   7.890 -3.0886  0.7751 -0.9701
 2696SOL    OH234286   3.836   1.626   1.768 -0.7961  0.4704  0.4811
 2696SOL     H134287   3.769   1.594   1.708  0.5983 -1.1132 -0.2665
 2696SOL     H234288   3.918   1.616   1.720  0.4831 -1.9061  3.0125
 2697SOL    OH234289   4.284   6.099   5.929  0.0979 -0.1016 -0.4398
 2697SOL     H134290   4.307   6.061   6.014  0.3859  1.7245  0.3282
 2697SOL     H234291   4.364   6.143   5.901 -0.6363  1.1143 -0.6413
 2698SOL    OH234292   2.521   2.174   0.696 -0.5502  0.2859 -0.1558
 2698SOL     H134293   2.430   2.192   0.720 -0.2079  0.7596  0.8043
 2698SOL     H234294   2.517   2.093   0.645 -0.9674 -2.5956  4.2225
 2699SOL    OH234295   7.409   6.913   5.833 -0.6526  0.0698 -0.1091
 2699SOL     H134296   7.476   6.980   5.825 -1.0480  0.2555 -2.2312
 2699SOL     H234297   7.339   6.954   5.882 -0.5585  0.9666 -0.7068
 2700SOL    OH234298   2.039   6.415   8.300 -0.4065  0.3849 -0.1812
 2700SOL     H134299   2.037   6.320   8.314 -1.0620  0.4781  0.3633
 2700SOL     H234300   2.009   6.427   8.210 -0.2037  0.0711 -0.2905
 2701SOL    OH234301   1.500   7.005   1.086 -0.3737 -0.2719  0.2608
 2701SOL     H134302   1.430   7.030   1.146 -1.2297 -1.5117 -0.2114
 2701SOL     H234303   1.494   7.069   1.015 -2.2148 -1.4352 -0.6791
 2702SOL    OH234304   3.873   5.667   7.665 -0.0412  0.0050  0.4625
 2702SOL     H134305   3.907   5.605   7.729  1.1755 -1.5597 -1.6390
 2702SOL     H234306   3.796   5.623   7.628  1.5651 -0.8582 -1.9438
 2703SOL    OH234307   1.943   3.476   0.577 -0.5812 -0.0019 -0.2429
 2703SOL     H134308   1.955   3.569   0.596  1.9822 -0.2483 -0.5472
 2703SOL     H234309   1.941   3.471   0.482 -1.7956 -0.1473 -0.2168
 2704SOL    OH234310   5.211   4.902   7.543  0.2505  0.8660  0.0321
 2704SOL     H134311   5.279   4.879   7.607 -0.1311 -2.8622 -0.8193
 2704SOL     H234312   5.136   4.929   7.596  1.6268  2.9585  1.0119
 2705SOL    OH234313   4.537   6.104   0.250  0.8299  0.1360 -0.2707
 2705SOL     H134314   4.608   6.101   0.314  0.9070 -1.0914 -0.4124
 2705SOL     H234315   4.581   6.104   0.165  0.6616 -0.5845 -0.3572
 2706SOL    OH234316   7.898   5.712   0.121 -0.3527  0.0040  0.2705
 2706SOL     H134317   7.874   5.700   0.213 -1.9299  0.2402 -0.0993
 2706SOL     H234318   7.886   5.626   0.081 -1.5632  0.3340 -0.1181
 2707SOL    OH234319   3.336   6.620   1.672  0.1873 -0.1688  0.5319
 2707SOL     H134320   3.326   6.542   1.618  0.1648  1.1999 -1.5040
 2707SOL     H234321   3.330   6.588   1.762 -0.5817 -2.3942 -0.2786
 2708SOL    OH234322   0.923   4.365   7.927  0.0882 -0.4586  0.3222
 2708SOL     H134323   0.883   4.427   7.988 -0.9600 -1.4557  0.6748
 2708SOL     H234324   1.007   4.343   7.967 -0.4701 -0.8891  1.2772
 2709SOL    OH234325   6.043   5.851   1.341  0.1822 -0.1193  0.4870
 2709SOL     H134326   6.103   5.925   1.333 -1.6973  1.3058 -0.8342
 2709SOL     H234327   5.989   5.855   1.262 -1.9051 -1.1085  1.8227
 2710SOL    OH234328   5.219   3.210   0.747  0.5210  0.0543  0.2380
 2710SOL     H134329   5.226   3.214   0.652 -0.0062 -1.6807  0.1023
 2710SOL     H234330   5.126   3.222   0.766  0.6701  0.7438  0.5660
 2711SOL    OH234331   1.876   2.404   6.805  0.5289 -0.0159  0.2979
 2711SOL     H134332   1.790   2.444   6.816  0.6534  0.7231 -1.2976
 2711SOL     H234333   1.872   2.323   6.856 -1.3922 -0.4227 -0.4753
 2712SOL    OH234334   2.406   3.775   5.900  0.2894  0.1187  0.6662
 2712SOL     H134335   2.464   3.851   5.905  1.2269 -0.4607 -0.9563
 2712SOL     H234336   2.465   3.700   5.903 -0.3774 -0.4853 -0.6682
 2713SOL    OH234337   6.309   1.393   0.314  0.2152  0.0919  0.4265
 2713SOL     H134338   6.336   1.464   0.255  0.2851 -0.2417  0.0583
 2713SOL     H234339   6.380   1.388   0.378  1.2339 -1.0373 -0.7613
 2714SOL    OH234340   7.168   1.544   0.257  0.1687 -0.4535 -0.1464
 2714SOL     H134341   7.132   1.533   0.169 -0.1966 -0.3094 -0.0161
 2714SOL     H234342   7.218   1.625   0.253  0.4580 -0.6414 -0.3222
 2715SOL    OH234343   6.881   3.475   0.423  0.4134 -0.3987 -0.2050
 2715SOL     H134344   6.926   3.531   0.485 -0.6830 -0.8506  1.0249
 2715SOL     H234345   6.788   3.495   0.435  0.0571 -1.8951 -0.2921
 2716SOL    OH234346   1.781   2.150   1.515  0.4189  0.6920  0.3391
 2716SOL     H134347   1.868   2.160   1.474  0.0262  1.6904 -0.2784
 2716SOL     H234348   1.720   2.159   1.442 -0.3038  2.5789  1.1580
 2717SOL    OH234349   1.922   3.030   7.470  0.4006 -0.1056 -0.1171
 2717SOL     H134350   1.939   3.069   7.384 -1.3900  0.4566 -0.2333
 2717SOL     H234351   1.928   3.103   7.532 -0.1259 -0.1680  0.0103
 2718SOL    OH234352   7.200   7.306   0.601  0.1723  0.4805 -0.6283
 2718SOL     H134353   7.238   7.309   0.514 -0.2954  1.6205 -0.8039
 2718SOL     H234354   7.182   7.397   0.623 -1.9973  0.0192 -0.3684
 2719SOL    OH234355   2.746   5.389   5.659  0.4576 -0.1565 -0.1198
 2719SOL     H134356   2.810   5.320   5.678  1.0269  0.1714 -0.8162
 2719SOL     H234357   2.664   5.356   5.693  1.3469  0.2061  2.5156
 2720SOL    OH234358   0.675   4.704   0.292  0.0102  0.1683 -0.3236
 2720SOL     H134359   0.730   4.755   0.233 -0.0051  0.5997  0.0286
 2720SOL     H234360   0.627   4.770   0.342 -0.6862 -0.1996 -0.4947
 2721SOL    OH234361   4.937   2.558   6.708  0.2442 -0.5633  0.9494
 2721SOL     H134362   4.871   2.628   6.710 -0.0159 -0.7782 -0.1128
 2721SOL     H234363   4.998   2.581   6.778 -0.2779  0.3027  1.1284
 2722SOL    OH234364   0.953   5.651   6.810  0.5515  0.6242  0.1745
 2722SOL     H134365   1.043   5.648   6.777  0.6882 -0.9159  0.6371
 2722SOL     H234366   0.913   5.724   6.763  2.3690  2.0973  0.8266
 2723SOL    OH234367   6.216   4.656   1.010 -0.5028 -0.6159 -0.6812
 2723SOL     H134368   6.132   4.662   0.965 -0.5767 -0.8194 -0.5703
 2723SOL     H234369   6.260   4.739   0.990 -0.3446 -0.8997 -1.5100
 2724SOL    OH234370   0.805   0.209   8.008  0.1851 -0.1392  0.0040
 2724SOL     H134371   0.717   0.212   7.971  0.0348 -0.6505  0.3117
 2724SOL     H234372   0.863   0.202   7.932 -0.2220 -3.0847 -0.0957
 2725SOL    OH234373   6.537   5.254   0.525  0.1759  0.2351  0.5275
 2725SOL     H134374   6.482   5.324   0.490 -2.1291 -1.2803  1.0042
 2725SOL     H234375   6.599   5.236   0.454 -0.0815  1.7959 -0.1292
 2726SOL    OH234376   4.229   3.987   7.232  0.3642  0.1113 -0.1404
 2726SOL     H134377   4.272   4.033   7.160 -0.1438  0.5638 -0.1525
 2726SOL     H234378   4.200   4.056   7.291  0.7228 -0.2567  0.4715
 2727SOL    OH234379   3.924   0.158   0.139  0.3409 -0.5255 -0.1425
 2727SOL     H134380   3.889   0.232   0.090  1.1019 -0.7892 -1.0878
 2727SOL     H234381   3.930   0.191   0.229 -0.3652  0.1928 -0.3454
 2728SOL    OH234382   1.088   7.257   6.656  0.0514  0.4733  0.3981
 2728SOL     H134383   1.126   7.176   6.691  2.1651  1.7367  1.0680
 2728SOL     H234384   1.105   7.323   6.723 -1.0376  1.6516 -0.4569
 2729SOL    OH234385   3.433   5.149   8.239 -0.3730  0.0021  0.4898
 2729SOL     H134386   3.388   5.080   8.190  0.6383 -1.1038  1.0934
 2729SOL     H234387   3.388   5.152   8.324  0.7605 -1.2238  1.1583
 2730SOL    OH234388   7.827   5.612   7.820  0.7633 -0.8804  0.8551
 2730SOL     H134389   7.849   5.543   7.758 -0.1631 -1.0481  0.6982
 2730SOL     H234390   7.906   5.665   7.827  0.5880 -0.2791 -1.2514
 2731SOL    OH234391   7.682   2.389   1.612 -0.2263 -1.0529  0.2293
 2731SOL     H134392   7.704   2.432   1.529  1.0110 -0.1338  1.0274
 2731SOL     H234393   7.589   2.366   1.603 -0.3272 -0.1920 -1.0647
 2732SOL    OH234394   1.543   1.010   8.047  0.7645  0.6664 -0.0105
 2732SOL     H134395   1.594   1.090   8.038  1.9644 -0.1449 -0.6331
 2732SOL     H234396   1.606   0.940   8.031 -0.6783 -0.3416 -1.4168
 2733SOL    OH234397   5.191   5.537   1.607 -0.2189  0.3445  0.3551
 2733SOL     H134398   5.149   5.534   1.521  3.0553  0.2596 -1.3298
 2733SOL     H234399   5.218   5.628   1.617  1.2704 -0.0733  0.3029
 2734SOL    OH234400   5.854   4.971   7.522 -0.1771 -0.0212 -0.0077
 2734SOL     H134401   5.908   4.904   7.565 -0.6328 -0.9091 -0.7912
 2734SOL     H234402   5.876   5.052   7.566  1.1692 -0.5232  0.2508
 2735SOL    OH234403   6.330   6.177   1.735 -0.4685  0.0441  0.2015
 2735SOL     H134404   6.313   6.200   1.827  1.1992 -0.6906  0.7092
 2735SOL     H234405   6.359   6.086   1.738  0.0185  0.1511 -1.0184
 2736SOL    OH234406   5.877   1.951   1.376  0.0510  0.5588  0.2499
 2736SOL     H134407   5.967   1.982   1.368 -1.2634  4.0118 -2.9319
 2736SOL     H234408   5.860   1.902   1.296 -0.8327 -0.2184  0.8990
 2737SOL    OH234409   2.868   0.718   7.743  0.4764  0.0419 -0.1630
 2737SOL     H134410   2.839   0.809   7.749 -0.9782 -0.3941 -0.4028
 2737SOL     H234411   2.887   0.692   7.833  1.0218  0.6235 -0.1105
 2738SOL    OH234412   5.773   1.845   1.729  0.1523 -0.4049 -0.5573
 2738SOL     H134413   5.806   1.759   1.703  0.0017 -0.8667  0.7379
 2738SOL     H234414   5.821   1.907   1.674 -0.7467 -1.3778 -2.4901
 2739SOL    OH234415   7.684   3.597   6.834  0.4988  0.0181 -0.2849
 2739SOL     H134416   7.746   3.597   6.761 -0.2604  0.0715 -0.9408
 2739SOL     H234417   7.611   3.544   6.803  0.5332 -0.6646  0.7618
 2740SOL    OH234418   7.754   1.006   0.890  0.2737  0.7524  0.1501
 2740SOL     H134419   7.800   0.949   0.951 -1.0964  0.8866  1.3204
 2740SOL     H234420   7.705   0.946   0.833 -0.8979  0.7454  1.1623
 2741SOL    OH234421   4.090   3.463   5.794 -0.0219  0.0913 -0.2144
 2741SOL     H134422   4.059   3.532   5.853  0.2595 -0.1844  0.2574
 2741SOL     H234423   4.044   3.479   5.712  0.8458  1.5059 -0.4497
 2742SOL    OH234424   7.146   7.570   7.687  0.4168  0.1628 -0.2123
 2742SOL     H134425   7.144   7.583   7.592 -0.7556  1.4106 -0.0358
 2742SOL     H234426   7.216   7.627   7.717 -0.2566  0.9721 -0.1646
 2743SOL    OH234427   2.755   1.072   7.481 -0.5298 -0.4888 -0.2770
 2743SOL     H134428   2.840   1.104   7.451  0.7893 -1.5047  2.2463
 2743SOL     H234429   2.729   1.132   7.551 -1.7692 -0.3778 -0.8015
 2744SOL    OH234430   2.453   6.997   8.082  0.0740  0.7455 -0.3619
 2744SOL     H134431   2.373   6.943   8.076  0.5983 -0.0479 -0.2643
 2744SOL     H234432   2.457   7.042   7.997  1.0472 -1.3855 -1.4705
 2745SOL    OH234433   1.854   5.966   6.373  0.4628  0.1790 -0.7015
 2745SOL     H134434   1.834   5.923   6.456  0.5118 -0.1746 -0.8735
 2745SOL     H234435   1.872   6.057   6.397  1.3142 -0.1109 -0.2288
 2746SOL    OH234436   6.434   2.563   1.583  0.1794 -0.8526 -0.4030
 2746SOL     H134437   6.394   2.648   1.565 -0.3083 -1.2294 -1.1096
 2746SOL     H234438   6.507   2.557   1.521  0.1909 -0.9616 -0.3782
 2747SOL    OH234439   6.432   3.815   1.843  0.8214 -0.1301 -0.3408
 2747SOL     H134440   6.464   3.726   1.854  0.9915 -0.1053 -0.6495
 2747SOL     H234441   6.498   3.870   1.887  1.2535 -0.0719 -1.0492
 2748SOL    OH234442   6.823   7.727   0.259 -0.6555  0.2439 -0.2699
 2748SOL     H134443   6.853   7.687   0.341 -1.8922  2.0394  1.0954
 2748SOL     H234444   6.758   7.666   0.224  1.2120 -1.4262 -0.8897
 2749SOL    OH234445   4.446   4.396   7.198 -0.0738  0.6799  0.4072
 2749SOL     H134446   4.373   4.436   7.150 -0.7271  0.2743  1.0647
 2749SOL     H234447   4.406   4.356   7.275  0.6785 -0.5878  0.1570
 2750SOL    OH234448   1.851   3.096   1.821 -0.1539  0.3787 -0.0569
 2750SOL     H134449   1.849   3.190   1.803  0.7757  0.2998 -0.6544
 2750SOL     H234450   1.886   3.089   1.910  2.6621  0.5086 -1.1041
 2751SOL    OH234451   5.823   2.042   7.280 -0.8017 -0.1937 -0.3715
 2751SOL     H134452   5.911   2.032   7.317  0.9688  1.2066 -3.8961
 2751SOL     H234453   5.785   1.955   7.283  0.9380 -0.9329  0.7119
 2752SOL    OH234454   1.116   0.686   0.641 -0.6246 -0.1816  0.8737
 2752SOL     H134455   1.205   0.716   0.652 -0.3063 -0.7489 -0.0498
 2752SOL     H234456   1.125   0.601   0.598 -1.6657  0.5614 -0.8558
 2753SOL    OH234457   3.801   1.269   1.510 -0.3667  0.0029 -0.1527
 2753SOL     H134458   3.780   1.190   1.460 -0.0178  0.2641 -0.7101
 2753SOL     H234459   3.821   1.335   1.444  0.5855  0.2147  0.3398
 2754SOL    OH234460   1.622   3.757   6.857 -0.1469  0.6363 -0.3030
 2754SOL     H134461   1.665   3.802   6.784 -2.0600 -0.4599 -2.1602
 2754SOL     H234462   1.600   3.827   6.918  0.6725  1.6902 -1.1944
 2755SOL    OH234463   6.985   7.921   6.569  0.1165 -0.0105  0.2235
 2755SOL     H134464   7.074   7.904   6.602  0.4372 -0.3114 -0.7836
 2755SOL     H234465   6.993   7.912   6.474 -0.9609  0.1346  0.1210
 2756SOL    OH234466   7.494   1.671   7.110 -0.1306 -0.6224 -0.2889
 2756SOL     H134467   7.464   1.746   7.057  3.8362  0.1359 -1.6456
 2756SOL     H234468   7.458   1.595   7.065 -0.9687  0.2953 -1.2124
 2757SOL    OH234469   2.933   7.731   5.610  0.0792 -0.2197 -0.3938
 2757SOL     H134470   2.918   7.825   5.605  0.5835 -0.1087  0.2484
 2757SOL     H234471   2.868   7.694   5.550  0.0108  0.5457 -0.7957
 2758SOL    OH234472   7.311   0.450   7.837  0.1093 -0.0223  0.4793
 2758SOL     H134473   7.360   0.527   7.809  0.6514 -0.4007  0.3732
 2758SOL     H234474   7.224   0.483   7.857  0.1628  0.5200 -0.1490
 2759SOL    OH234475   2.995   1.394   6.381 -0.3031 -0.7893 -0.0686
 2759SOL     H134476   2.994   1.362   6.472  0.3438  0.0187  0.2350
 2759SOL     H234477   2.917   1.449   6.374 -0.0284 -0.3548  0.1951
 2760SOL    OH234478   5.102   4.074   7.058  0.5516 -0.4515 -0.0353
 2760SOL     H134479   5.060   4.159   7.069 -0.4869 -0.8700 -0.6496
 2760SOL     H234480   5.107   4.037   7.146  0.9706  0.2255  0.2276
 2761SOL    OH234481   3.043   1.494   5.978  0.1084  0.0067 -0.4712
 2761SOL     H134482   3.117   1.447   6.016 -0.6125  0.9053  2.1791
 2761SOL     H234483   3.063   1.501   5.885  3.6955  0.8848  0.3069
 2762SOL    OH234484   3.908   4.759   2.579 -0.0271 -0.4872 -0.0374
 2762SOL     H134485   3.846   4.826   2.551 -1.6161 -2.8240 -2.3719
 2762SOL     H234486   3.990   4.781   2.535 -0.5934 -0.1495 -0.9344
 2763SOL    OH234487   4.392   3.856   1.492  0.3335 -0.1450 -0.3470
 2763SOL     H134488   4.484   3.882   1.485  0.3165 -0.1817 -0.7816
 2763SOL     H234489   4.395   3.765   1.522  0.4129  0.1288  0.4769
 2764SOL    OH234490   0.597   1.988   1.116  0.3207  0.9898 -0.4318
 2764SOL     H134491   0.681   1.982   1.162  0.8585  3.1485 -1.0732
 2764SOL     H234492   0.549   2.055   1.164 -1.8154 -1.5507  1.0758
 2765SOL    OH234493   3.645   1.951   1.826 -0.2936  0.4670  0.2475
 2765SOL     H134494   3.714   1.944   1.761 -0.7513 -1.4863 -0.0376
 2765SOL     H234495   3.563   1.939   1.777 -0.6160 -1.4400  1.2320
 2766SOL    OH234496   0.178   3.439   2.219  0.6878  0.8624  0.6026
 2766SOL     H134497   0.192   3.359   2.270 -2.2469  0.6158  1.1476
 2766SOL     H234498   0.251   3.496   2.244  1.9663 -1.0565  1.3903
 2767SOL    OH234499   5.785   2.364   1.977  0.6892  0.5013 -0.6225
 2767SOL     H134500   5.862   2.307   1.969 -0.0177 -0.5496 -0.0124
 2767SOL     H234501   5.711   2.308   1.955 -0.2170  0.6296  1.9500
 2768SOL    OH234502   1.136   4.369   7.214 -0.3008 -0.5592  0.1700
 2768SOL     H134503   1.224   4.346   7.244  0.0159 -0.2269 -0.4690
 2768SOL     H234504   1.150   4.445   7.157 -1.2790  0.9975  1.9534
 2769SOL    OH234505   4.858   4.604   0.870 -0.1238 -0.2592  0.2452
 2769SOL     H134506   4.806   4.524   0.882  0.4396 -0.7301 -0.4445
 2769SOL     H234507   4.916   4.585   0.797  2.6656 -0.6101  2.4452
 2770SOL    OH234508   2.832   1.419   7.596 -0.0588  0.1015 -0.1096
 2770SOL     H134509   2.874   1.340   7.631 -1.6946 -0.7176  0.0538
 2770SOL     H234510   2.790   1.459   7.672  0.3684  0.8901 -0.2852
 2771SOL    OH234511   3.478   7.735   0.601 -0.0998 -0.0549 -0.1657
 2771SOL     H134512   3.522   7.792   0.664 -1.0247  0.3092  0.1507
 2771SOL     H234513   3.541   7.665   0.585  0.4569  0.2705  0.5523
 2772SOL    OH234514   3.234   0.060   8.015  0.2954 -0.6144  0.3526
 2772SOL     H134515   3.197   0.111   8.087 -2.3454 -0.9662 -0.6910
 2772SOL     H234516   3.260   0.125   7.950 -1.3583 -0.5046 -0.2014
 2773SOL    OH234517   0.170   4.018   0.884 -0.5362 -0.2483  0.1868
 2773SOL     H134518   0.096   3.966   0.916  1.2609 -1.2516  2.8775
 2773SOL     H234519   0.247   3.974   0.920  1.3504  1.1178 -2.0737
 2774SOL    OH234520   4.653   3.288   0.309  0.1213  0.0004 -0.6241
 2774SOL     H134521   4.588   3.271   0.241 -0.9977 -0.4826  0.5498
 2774SOL     H234522   4.681   3.379   0.293 -2.1095  0.8094 -0.0984
 2775SOL    OH234523   6.358   6.777   0.875  0.2330  0.0438 -0.3928
 2775SOL     H134524   6.435   6.771   0.818  0.5859 -1.8392  0.2573
 2775SOL     H234525   6.321   6.863   0.855  3.3946  1.7053  0.4120
 2776SOL    OH234526   2.607   3.942   6.777  0.2741  0.1785  0.1584
 2776SOL     H134527   2.569   3.870   6.826  1.2917  0.1727  0.9546
 2776SOL     H234528   2.665   3.986   6.839 -0.9031  2.1410 -0.0864
 2777SOL    OH234529   1.739   1.210   0.935  0.3968 -0.0900  0.2710
 2777SOL     H134530   1.718   1.189   1.026  1.1954 -1.4171  0.1601
 2777SOL     H234531   1.718   1.131   0.886 -1.0593  0.9732 -0.8788
 2778SOL    OH234532   3.139   2.283   6.751  0.7522 -0.3059  0.5803
 2778SOL     H134533   3.125   2.264   6.658  1.3014 -2.7255  0.9490
 2778SOL     H234534   3.064   2.241   6.794 -0.0137  1.6346  1.1692
 2779SOL    OH234535   7.156   5.735   0.170  0.4267  0.8208 -0.1925
 2779SOL     H134536   7.240   5.747   0.215 -0.0976 -0.9250  1.2950
 2779SOL     H234537   7.171   5.664   0.109 -0.2377 -0.1800  0.7973
 2780SOL    OH234538   2.915   6.018   2.274  0.3697 -0.2833  0.4818
 2780SOL     H134539   2.835   6.010   2.222  0.2758 -2.0700  0.8468
 2780SOL     H234540   2.893   6.083   2.341 -0.5604 -0.2639  0.1746
 2781SOL    OH234541   4.449   5.191   0.281 -0.0795  0.2680 -0.3271
 2781SOL     H134542   4.537   5.196   0.320 -0.6500  0.9144  0.9020
 2781SOL     H234543   4.409   5.275   0.302 -1.0296 -0.0661 -0.7966
 2782SOL    OH234544   6.806   5.003   2.859  0.2955  0.2421 -0.3705
 2782SOL     H134545   6.866   5.077   2.875  0.0049  0.1284  1.3129
 2782SOL     H234546   6.791   4.966   2.945 -0.4701 -1.1012 -1.0772
 2783SOL    OH234547   4.909   2.490   0.706  0.4989 -0.0136  0.1233
 2783SOL     H134548   4.852   2.414   0.693  3.2568 -2.6840  2.7433
 2783SOL     H234549   4.964   2.492   0.628 -0.0563 -0.2771 -0.2798
 2784SOL    OH234550   5.041   0.123   7.209 -0.1286  0.8538  0.0291
 2784SOL     H134551   5.103   0.177   7.160 -0.3886 -0.0475 -1.3038
 2784SOL     H234552   4.956   0.164   7.194 -0.0219  1.4158  0.9179
 2785SOL    OH234553   2.687   5.783   1.343 -0.2331  0.0035 -0.5702
 2785SOL     H134554   2.621   5.817   1.283 -0.5116 -2.6340 -1.8480
 2785SOL     H234555   2.770   5.807   1.302 -0.4161 -2.1558 -2.3189
 2786SOL    OH234556   5.519   6.270   1.222 -0.1822 -0.1313  0.0249
 2786SOL     H134557   5.592   6.243   1.278 -1.3221 -2.3937  0.5012
 2786SOL     H234558   5.443   6.226   1.261 -1.8074  2.2318 -0.4218
 2787SOL    OH234559   6.551   2.457   1.889 -0.0123 -0.1058  0.1171
 2787SOL     H134560   6.523   2.432   1.977 -1.1706 -1.0048 -0.4965
 2787SOL     H234561   6.499   2.534   1.868 -0.7023 -0.6816 -0.2984
 2788SOL    OH234562   2.782   2.945   0.704 -0.8953 -0.3460 -0.0555
 2788SOL     H134563   2.706   2.964   0.649 -0.0713 -0.6034 -1.3166
 2788SOL     H234564   2.782   2.849   0.712  1.0356 -0.6415 -2.6957
 2789SOL    OH234565   3.100   1.585   7.980 -0.3945  0.0951 -0.3579
 2789SOL     H134566   3.009   1.614   7.989 -0.4681 -0.1046 -0.4498
 2789SOL     H234567   3.098   1.520   7.909 -0.9093 -3.0204  2.4050
 2790SOL    OH234568   0.627   4.533   1.834  1.0498  0.1179  0.1521
 2790SOL     H134569   0.625   4.492   1.747 -0.0164  0.0120  0.2156
 2790SOL     H234570   0.543   4.509   1.873  1.1148  0.9991  0.8356
 2791SOL    OH234571   3.275   0.373   6.304  0.2598  0.0178 -0.3214
 2791SOL     H134572   3.294   0.328   6.387  0.6632 -0.2768 -0.5736
 2791SOL     H234573   3.184   0.401   6.314  0.1485 -0.4434  0.0316
 2792SOL    OH234574   3.233   6.558   0.552 -0.0719 -0.5250 -0.5544
 2792SOL     H134575   3.283   6.477   0.548  0.4125 -0.1741 -2.1423
 2792SOL     H234576   3.298   6.626   0.565 -0.3398 -0.2598 -0.5893
 2793SOL    OH234577   3.281   0.456   0.078  0.2347 -0.3173 -0.4255
 2793SOL     H134578   3.363   0.505   0.073  1.1641 -1.5734  2.0146
 2793SOL     H234579   3.245   0.479   0.163 -0.0924 -2.6605  0.0911
 2794SOL    OH234580   2.958   2.684   2.102 -0.1640  0.0792 -0.6080
 2794SOL     H134581   2.885   2.639   2.145  0.3529  2.2177  2.7266
 2794SOL     H234582   2.921   2.765   2.069  0.2021  0.0307 -1.1609
 2795SOL    OH234583   7.111   7.206   0.022 -0.0849  0.3806 -1.3899
 2795SOL     H134584   7.051   7.147   0.067  3.1119 -2.9230 -1.2728
 2795SOL     H234585   7.093   7.193  -0.071  1.1413 -1.4768 -1.3990
 2796SOL    OH234586   7.092   0.530   0.912  0.3349  0.5672  0.3175
 2796SOL     H134587   7.169   0.493   0.957 -0.2779 -0.7880  0.2728
 2796SOL     H234588   7.020   0.473   0.938 -0.6890  1.8936  0.4350
 2797SOL    OH234589   3.943   3.671   6.306  0.3704  0.3816  0.4453
 2797SOL     H134590   3.931   3.747   6.250 -0.4497  1.7947  2.4743
 2797SOL     H234591   3.862   3.621   6.296  0.3778  0.4417  0.0917
 2798SOL    OH234592   6.502   2.244   1.551  0.5129  0.0921  0.0467
 2798SOL     H134593   6.483   2.303   1.478  0.6679  1.6058  1.1934
 2798SOL     H234594   6.589   2.272   1.582  0.2025 -0.1483  1.1536
 2799SOL    OH234595   4.749   4.015   2.675 -0.2914  0.6162  0.0347
 2799SOL     H134596   4.781   4.105   2.683 -2.3388  1.7374 -3.2193
 2799SOL     H234597   4.654   4.023   2.666 -0.3915 -1.7418 -1.6020
 2800SOL    OH234598   2.726   5.238   7.098  0.2397 -0.2259 -0.0877
 2800SOL     H134599   2.803   5.184   7.111  1.1323  1.0306 -0.0577
 2800SOL     H234600   2.666   5.183   7.047  1.3002 -1.0791 -0.4342
 2801SOL    OH234601   5.084   1.701   7.493  0.0051 -0.4650 -0.4761
 2801SOL     H134602   5.028   1.633   7.456 -2.2527  1.4530 -0.6675
 2801SOL     H234603   5.097   1.763   7.422 -0.0051  0.5651  0.4128
 2802SOL    OH234604   5.775   2.947   1.182 -0.2990  0.3078 -0.3977
 2802SOL     H134605   5.791   2.857   1.210  1.4513  0.4992 -0.7438
 2802SOL     H234606   5.791   3.000   1.260  0.9159  0.5091 -0.7721
 2803SOL    OH234607   1.115   7.085   2.657 -0.0666 -0.0159  0.3453
 2803SOL     H134608   1.022   7.107   2.648  0.3674  1.6221 -0.3309
 2803SOL     H234609   1.153   7.160   2.703  1.0478 -0.3606  0.0007
 2804SOL    OH234610   1.836   2.431   6.518 -0.2328  0.1749 -0.4331
 2804SOL     H134611   1.745   2.408   6.500 -0.8328  2.1911 -0.1314
 2804SOL     H234612   1.839   2.442   6.613  1.0504 -2.7757 -0.0948
 2805SOL    OH234613   6.741   6.120   5.986  0.3595  0.0798 -0.0646
 2805SOL     H134614   6.718   6.028   5.972 -0.8262  0.5240 -1.1286
 2805SOL     H234615   6.658   6.161   6.012  0.3329  1.3411 -2.0597
 2806SOL    OH234616   6.455   1.618   0.214 -0.5135 -0.5327  0.0975
 2806SOL     H134617   6.525   1.554   0.228 -0.1175  0.0474  0.7872
 2806SOL     H234618   6.461   1.677   0.289 -1.9713 -0.6865  0.3587
 2807SOL    OH234619   2.735   4.549   1.647  0.1987 -0.1529  0.7550
 2807SOL     H134620   2.795   4.516   1.581 -0.7882 -1.4850  0.4847
 2807SOL     H234621   2.660   4.489   1.643  0.5324 -0.8392  3.7218
 2808SOL    OH234622   6.619   4.707   8.090  0.5419  0.4854 -0.2944
 2808SOL     H134623   6.574   4.627   8.063 -0.4291  0.8505  0.2068
 2808SOL     H234624   6.672   4.680   8.166  2.5771 -0.3335 -1.9521
 2809SOL    OH234625   5.219   5.016   0.737  0.0214 -0.0648  0.4642
 2809SOL     H134626   5.256   5.030   0.825  2.6197  1.5657 -0.8313
 2809SOL     H234627   5.140   5.070   0.736  0.9107  1.2914  1.2420
 2810SOL    OH234628   2.352   6.415   7.188  0.1650  0.7729 -0.3664
 2810SOL     H134629   2.401   6.347   7.140  0.2378  0.6538 -0.1244
 2810SOL     H234630   2.418   6.480   7.211  0.6216 -0.4127  1.8147
 2811SOL    OH234631   2.539   1.310   0.228 -0.0565  0.2991  1.0687
 2811SOL     H134632   2.580   1.225   0.247 -1.1207 -0.3176  0.6629
 2811SOL     H234633   2.480   1.291   0.155  1.8179  1.9999 -0.9450
 2812SOL    OH234634   6.286   3.665   1.330  0.2253 -0.3378 -0.2138
 2812SOL     H134635   6.279   3.618   1.247  1.9912 -1.0542  0.0396
 2812SOL     H234636   6.269   3.756   1.306  0.6013 -0.5513 -1.3392
 2813SOL    OH234637   3.111   7.166   0.425  0.0785  0.4879 -0.0744
 2813SOL     H134638   3.056   7.243   0.417  0.7693  0.9347 -0.5530
 2813SOL     H234639   3.067   7.099   0.372  0.4640  1.1083 -1.1815
 2814SOL    OH234640   5.509   7.320   1.181 -0.5313 -0.1362  0.1521
 2814SOL     H134641   5.570   7.394   1.188 -0.3054 -0.3380  0.3304
 2814SOL     H234642   5.424   7.361   1.165 -0.0864  0.0894 -1.7656
 2815SOL    OH234643   6.036   3.122   8.050 -0.4011  0.6567 -0.3222
 2815SOL     H134644   6.009   3.030   8.056  0.3754  0.4598  0.3346
 2815SOL     H234645   5.958   3.168   8.020 -0.9933 -0.1254 -0.0067
 2816SOL    OH234646   7.885   3.647   7.393  0.4903  0.2563 -0.0264
 2816SOL     H134647   7.919   3.736   7.386 -0.8727  0.6426 -1.9548
 2816SOL     H234648   7.791   3.658   7.408  0.3865 -0.8567  0.2312
 2817SOL    OH234649   3.542   4.879   1.407  0.0135  0.1635 -0.2655
 2817SOL     H134650   3.479   4.808   1.423  0.1369 -0.0408 -0.6983
 2817SOL     H234651   3.603   4.873   1.481 -0.9476  0.8887  0.6066
 2818SOL    OH234652   1.502   5.063   1.787  0.4376  0.6025  0.1154
 2818SOL     H134653   1.551   5.123   1.843  0.6912  0.8838 -0.4048
 2818SOL     H234654   1.425   5.039   1.839  2.3618 -1.8213  1.9538
 2819SOL    OH234655   5.715   1.672   0.389 -0.4080 -0.2578 -0.3390
 2819SOL     H134656   5.731   1.578   0.397  0.2111 -0.1970 -0.8650
 2819SOL     H234657   5.802   1.711   0.385 -0.6525  0.4307  0.8275
 2820SOL    OH234658   0.136   2.023   8.237 -0.5038 -0.1413 -0.1987
 2820SOL     H134659   0.176   2.097   8.191  1.9987 -1.1139  0.3947
 2820SOL     H234660   0.193   1.949   8.220 -1.5254 -1.3568  1.4650
 2821SOL    OH234661   5.644   7.097   6.151  0.8644  0.1947  0.2433
 2821SOL     H134662   5.583   7.159   6.110 -0.4739 -1.6524 -0.6342
 2821SOL     H234663   5.595   7.015   6.156  2.7120 -0.8899  1.1079
 2822SOL    OH234664   1.130   7.787   7.291 -0.2286  0.0682  0.8327
 2822SOL     H134665   1.211   7.821   7.330  0.8794  0.4980 -1.7656
 2822SOL     H234666   1.095   7.859   7.239  0.4447 -1.6799 -2.1481
 2823SOL    OH234667   0.791   6.831   0.532 -0.3518 -0.2241 -0.0192
 2823SOL     H134668   0.885   6.819   0.542 -0.5570 -1.1473  0.8593
 2823SOL     H234669   0.771   6.796   0.446  0.2270  0.7096 -0.5440
 2824SOL    OH234670   0.025   6.299   7.406 -0.2792  0.4358 -0.2722
 2824SOL     H134671   0.051   6.310   7.497 -2.0498  0.3231  0.2668
 2824SOL     H234672   0.078   6.226   7.374 -0.1498  0.0266  0.8661
 2825SOL    OH234673   1.865   1.701   0.875  0.6557 -0.2309 -0.0515
 2825SOL     H134674   1.781   1.669   0.909 -0.5175  2.0635 -0.6719
 2825SOL     H234675   1.865   1.675   0.783 -0.8545  2.5005 -0.8757
 2826SOL    OH234676   7.537   2.039   8.086 -0.3366  0.0483  0.1658
 2826SOL     H134677   7.519   2.130   8.060  1.1708  0.3346  0.0964
 2826SOL     H234678   7.593   2.005   8.016 -0.5478 -0.7995  0.4103
 2827SOL    OH234679   0.963   7.539   0.122  0.6027  0.3675 -0.5728
 2827SOL     H134680   0.887   7.524   0.065  0.5238  1.1949 -0.6930
 2827SOL     H234681   1.026   7.472   0.095 -0.2775 -0.6624 -0.1130
 2828SOL    OH234682   0.900   2.352   1.330 -0.0451 -0.3685 -0.3754
 2828SOL     H134683   0.880   2.422   1.268  1.4878  1.1656  0.8314
 2828SOL     H234684   0.991   2.327   1.310 -0.6671 -2.2819 -1.0128
 2829SOL    OH234685   1.050   3.786   7.899 -0.4050  0.3977  0.5980
 2829SOL     H134686   0.955   3.796   7.905 -0.6263 -1.5697  0.6152
 2829SOL     H234687   1.071   3.819   7.811 -1.1023  0.7751  0.5645
 2830SOL    OH234688   3.108   0.658   1.300 -0.8654  0.4389 -0.0595
 2830SOL     H134689   3.039   0.688   1.241 -1.5080 -0.9154 -0.0144
 2830SOL     H234690   3.094   0.709   1.380 -1.9226  0.0614  0.0081
 2831SOL    OH234691   7.352   4.541   1.479  0.5254 -0.1862  0.3483
 2831SOL     H134692   7.386   4.576   1.397 -0.1230 -1.4344 -0.4733
 2831SOL     H234693   7.284   4.603   1.506 -0.8479 -0.9533 -1.2693
 2832SOL    OH234694   2.560   3.356   0.387  0.3735  0.3713  0.6801
 2832SOL     H134695   2.584   3.314   0.305 -0.1865  2.9025 -0.8295
 2832SOL     H234696   2.465   3.346   0.393  0.3425  0.6834  0.7316
 2833SOL    OH234697   2.971   7.096   7.566 -0.3467 -0.0669 -0.2538
 2833SOL     H134698   3.003   7.181   7.595  0.4910 -0.7433  0.8330
 2833SOL     H234699   2.995   7.093   7.473  2.4151 -0.3578  0.4099
 2834SOL    OH234700   2.555   2.811   6.458  0.1482 -0.5254 -0.5628
 2834SOL     H134701   2.497   2.761   6.515 -0.5845  0.3962 -0.4869
 2834SOL     H234702   2.642   2.799   6.496 -0.4173  0.6091  1.1253
 2835SOL    OH234703   3.543   0.092   6.348  0.4968 -0.3695 -0.1379
 2835SOL     H134704   3.609   0.139   6.298  1.1346 -1.1243 -0.0034
 2835SOL     H234705   3.512   0.156   6.412 -0.5401  0.6998 -1.6642
 2836SOL    OH234706   5.003   1.473   7.952 -0.1730 -0.2344 -0.3491
 2836SOL     H134707   4.956   1.436   7.877  0.1049 -3.8881  1.1898
 2836SOL     H234708   5.094   1.443   7.940  0.3674  1.1427  0.2383
 2837SOL    OH234709   0.576   1.910   0.165  0.1945  0.2152 -0.2275
 2837SOL     H134710   0.508   1.971   0.192 -1.1133 -1.1755 -0.3115
 2837SOL     H234711   0.529   1.838   0.125  1.9230  0.7383 -3.3285
 2838SOL    OH234712   3.019   1.306   5.686 -0.4829  0.2035  0.3096
 2838SOL     H134713   3.034   1.266   5.601  0.8425 -1.5136  1.3147
 2838SOL     H234714   3.064   1.391   5.682  0.6708 -0.4309 -0.2636
 2839SOL    OH234715   2.859   1.619   6.122 -0.2609 -0.1542 -0.3026
 2839SOL     H134716   2.926   1.563   6.085 -0.1887 -0.3720  0.1601
 2839SOL     H234717   2.781   1.602   6.070 -0.7265 -1.9977  0.9473
 2840SOL    OH234718   7.338   3.138   8.126 -0.2097  0.0378 -0.8182
 2840SOL     H134719   7.342   3.059   8.070 -0.2648 -0.4970 -0.0722
 2840SOL     H234720   7.425   3.177   8.118 -1.2724  1.9679 -4.1288
 2841SOL    OH234721   7.107   6.725   1.152 -0.4576  0.0917 -0.0717
 2841SOL     H134722   7.061   6.798   1.192 -1.4505 -0.2138 -0.6481
 2841SOL     H234723   7.138   6.759   1.068  1.2296  0.5958  0.7365
 2842SOL    OH234724   5.149   0.948   1.596 -0.4880 -0.3760  0.2109
 2842SOL     H134725   5.203   0.870   1.583  0.8229  0.3111  1.2731
 2842SOL     H234726   5.194   1.017   1.546 -0.5414  0.1343  0.8575
 2843SOL    OH234727   3.973   0.540   7.273  0.4560 -0.8630  0.1040
 2843SOL     H134728   4.034   0.579   7.336 -0.5102  1.3402 -0.2820
 2843SOL     H234729   4.009   0.453   7.256  2.8492 -0.0509  0.7566
 2844SOL    OH234730   0.115   1.953   0.228 -0.1948 -0.4076  0.4301
 2844SOL     H134731   0.130   1.981   0.138 -0.1050  1.2282  0.9248
 2844SOL     H234732   0.115   2.035   0.279  1.9813 -1.4397  2.2092
 2845SOL    OH234733   1.069   1.764   7.937 -0.2900  0.0443 -0.0134
 2845SOL     H134734   1.061   1.851   7.897  0.3871  0.2202  0.2398
 2845SOL     H234735   1.018   1.770   8.018  1.1034  0.7083  0.8299
 2846SOL    OH234736   2.683   6.505   0.927 -0.2452  0.2761  0.6862
 2846SOL     H134737   2.712   6.469   0.843 -1.3985  1.1389 -0.0782
 2846SOL     H234738   2.754   6.563   0.954 -0.2722  0.6981 -0.1323
 2847SOL    OH234739   6.023   1.864   6.635 -0.4408  0.2132  0.5819
 2847SOL     H134740   6.107   1.880   6.591 -1.0694  1.1086 -0.2949
 2847SOL     H234741   5.993   1.781   6.599 -0.2523  0.2238  0.3984
 2848SOL    OH234742   5.407   3.077   6.813 -0.1632 -0.1935 -0.3981
 2848SOL     H134743   5.474   3.061   6.746 -0.3137  1.4753 -0.9740
 2848SOL     H234744   5.347   3.140   6.772 -1.4885 -0.8406  0.5073
 2849SOL    OH234745   3.517   0.545   0.210  0.0493  0.1521  0.1933
 2849SOL     H134746   3.564   0.462   0.197 -0.7947 -0.2297 -0.5192
 2849SOL     H234747   3.465   0.531   0.289  0.0486  0.0701  0.1785
 2850SOL    OH234748   2.810   7.452   0.468 -0.2885  0.5800 -0.2767
 2850SOL     H134749   2.844   7.372   0.427  0.1851 -0.0395  1.2981
 2850SOL     H234750   2.757   7.422   0.541 -0.0555  1.7006  0.3776
 2851SOL    OH234751   0.110   3.183   7.042 -0.2183 -0.0133  0.2599
 2851SOL     H134752   0.063   3.260   7.074 -1.4902 -0.7304  0.1598
 2851SOL     H234753   0.075   3.111   7.094  0.1727 -0.6755 -0.3958
 2852SOL    OH234754   1.424   7.194   6.689 -0.0082 -0.6796 -0.0293
 2852SOL     H134755   1.482   7.270   6.688 -0.4742 -0.3019  0.7534
 2852SOL     H234756   1.477   7.123   6.725 -0.3794 -0.0333  1.8387
 2853SOL    OH234757   7.404   5.821   1.549 -0.0581  0.2412  0.1786
 2853SOL     H134758   7.311   5.806   1.561  0.1114 -1.0082  0.0295
 2853SOL     H234759   7.441   5.733   1.536  0.8325  0.8846 -1.8061
 2854SOL    OH234760   0.709   7.037   0.678 -0.3229  0.2793 -0.2895
 2854SOL     H134761   0.720   6.961   0.622 -0.3501 -0.9057  1.2900
 2854SOL     H234762   0.795   7.050   0.719 -0.5624  0.5303  0.1440
 2855SOL    OH234763   1.137   3.700   8.183  0.0193  0.1084 -0.0029
 2855SOL     H134764   1.099   3.739   8.104  2.3637  0.4569 -0.9914
 2855SOL     H234765   1.158   3.610   8.158  2.6877  0.8311 -0.4402
 2856SOL    OH234766   1.556   4.123   7.654  0.2642 -0.0517  0.6587
 2856SOL     H134767   1.470   4.158   7.679 -0.4133 -2.8766  2.5408
 2856SOL     H234768   1.554   4.119   7.558 -1.3361  0.7943  0.6455
 2857SOL    OH234769   3.621   7.662   8.135 -0.3238 -0.0566 -0.0130
 2857SOL     H134770   3.556   7.718   8.177 -0.4974  0.2233 -0.6453
 2857SOL     H234771   3.696   7.664   8.195 -0.8401 -0.2755  0.6474
 2858SOL    OH234772   4.608   1.155   7.730  0.1105  0.1206  0.1731
 2858SOL     H134773   4.613   1.062   7.752  0.7019  0.1884  0.3296
 2858SOL     H234774   4.516   1.170   7.707 -0.0825 -0.3963  0.6219
 2859SOL    OH234775   0.145   5.037   6.029  0.0187 -0.6842 -0.2040
 2859SOL     H134776   0.075   4.982   5.992 -0.5640 -0.5675  0.7148
 2859SOL     H234777   0.187   4.981   6.094  0.7014 -0.7013 -0.6482
 2860SOL    OH234778   3.942   6.825   1.376  0.5775 -0.4496  0.4070
 2860SOL     H134779   4.019   6.809   1.321  0.4376  0.8874 -0.1915
 2860SOL     H234780   3.889   6.745   1.367 -0.7923  0.7749 -3.6746
 2861SOL    OH234781   3.999   3.094   7.835 -0.3172 -0.3814  0.3089
 2861SOL     H134782   4.071   3.059   7.887 -1.4711 -1.0971  1.4548
 2861SOL     H234783   3.986   3.029   7.765  2.1417  1.2601 -1.7419
 2862SOL    OH234784   6.729   7.394   7.178  0.4663  0.6229  0.3412
 2862SOL     H134785   6.768   7.357   7.099  0.5910 -0.4244  0.8780
 2862SOL     H234786   6.741   7.488   7.169  0.6399  0.5026 -0.7996
 2863SOL    OH234787   5.910   6.550   6.744  0.0496 -0.3575  0.1643
 2863SOL     H134788   5.861   6.506   6.675 -0.7383  0.6832  0.0518
 2863SOL     H234789   5.884   6.505   6.824  0.0587 -0.7825 -0.0680
 2864SOL    OH234790   7.298   2.503   2.033  0.1104  0.4711 -0.8471
 2864SOL     H134791   7.288   2.584   2.082  0.9624 -0.8308  1.5728
 2864SOL     H234792   7.209   2.472   2.019 -0.2074  1.6913 -1.5777
 2865SOL    OH234793   1.863   2.490   1.140  0.0030 -0.1619  0.3334
 2865SOL     H134794   1.847   2.405   1.099 -0.8712 -0.1845  0.7171
 2865SOL     H234795   1.958   2.492   1.154  0.4068  0.0767 -2.1915
 2866SOL    OH234796   2.556   4.003   0.007  0.1713 -0.0384 -0.2270
 2866SOL     H134797   2.550   4.072  -0.059  0.4836  1.9462  1.7555
 2866SOL     H234798   2.507   4.037   0.082  1.5526 -1.3387  1.3161
 2867SOL    OH234799   3.965   1.191   8.177 -0.2050 -0.2634  0.0833
 2867SOL     H134800   3.912   1.114   8.198 -2.0655  0.4694 -1.8391
 2867SOL     H234801   3.902   1.262   8.167  1.3352  1.1116 -0.0107
 2868SOL    OH234802   1.900   7.816   7.664 -0.3272 -0.3888 -0.3168
 2868SOL     H134803   1.822   7.804   7.609  0.3897 -0.4551 -1.3201
 2868SOL     H234804   1.883   7.897   7.711 -1.3553 -0.8054  0.0590
 2869SOL    OH234805   0.774   3.991   6.260 -0.6483 -0.1983 -0.2228
 2869SOL     H134806   0.843   3.982   6.326 -0.1778 -0.1301 -0.7071
 2869SOL     H234807   0.740   4.080   6.273 -0.4460 -0.1273 -0.1906
 2870SOL    OH234808   0.401   6.186   0.495 -0.2418  0.1222  0.4423
 2870SOL     H134809   0.490   6.216   0.512  0.2394  0.3326 -2.3007
 2870SOL     H234810   0.411   6.101   0.451 -1.4253 -0.2408  0.8291
 2871SOL    OH234811   6.617   6.410   5.801  0.5275  0.1540  0.0595
 2871SOL     H134812   6.711   6.411   5.816  0.7788 -0.5812 -1.3683
 2871SOL     H234813   6.594   6.317   5.803  0.1274  0.2206 -1.3349
 2872SOL    OH234814   2.603   2.489   6.277 -0.1672 -0.2829 -0.4204
 2872SOL     H134815   2.537   2.442   6.329  0.6108 -0.8042  0.1201
 2872SOL     H234816   2.686   2.466   6.319  0.5487 -1.3456 -2.3761
 2873SOL    OH234817   4.450   4.633   1.848  0.1346 -0.3535 -0.0292
 2873SOL     H134818   4.461   4.610   1.940  1.1688  0.7727  0.1495
 2873SOL     H234819   4.537   4.662   1.821 -0.4478  0.4585 -1.0348
 2874SOL    OH234820   1.284   1.701   7.367  0.1239 -0.3559  0.3657
 2874SOL     H134821   1.228   1.654   7.305  0.1964  1.6162 -1.2570
 2874SOL     H234822   1.319   1.633   7.424 -1.1184 -2.0520 -0.8375
 2875SOL    OH234823   1.325   6.765   0.067  0.4791 -0.0219  0.3592
 2875SOL     H134824   1.412   6.800   0.085  0.5877  0.0069 -0.2300
 2875SOL     H234825   1.317   6.690   0.126  0.4037  0.7336  1.3318
 2876SOL    OH234826   7.703   1.353   1.917  0.5278  0.1235 -0.4212
 2876SOL     H134827   7.794   1.361   1.887  0.6774  0.2442  0.0617
 2876SOL     H234828   7.682   1.260   1.905 -0.7196  0.8489 -4.6243
 2877SOL    OH234829   3.326   6.054   0.673  0.6531  0.0613 -0.1839
 2877SOL     H134830   3.337   5.964   0.705 -0.1754  0.6743  1.8550
 2877SOL     H234831   3.403   6.068   0.617  0.5081 -2.0932 -0.9787
 2878SOL    OH234832   5.252   0.777   0.631  0.0285  0.0167  0.1454
 2878SOL     H134833   5.216   0.720   0.699 -0.1803 -1.4168 -1.1435
 2878SOL     H234834   5.180   0.838   0.612 -1.1089 -1.6678 -1.1045
 2879SOL    OH234835   6.663   5.813   0.978  0.2877 -0.7182 -0.0592
 2879SOL     H134836   6.632   5.824   1.068  2.9147 -0.7418  0.8927
 2879SOL     H234837   6.664   5.718   0.966  0.5431 -0.7381  0.1126
 2880SOL    OH234838   3.541   1.743   0.935  0.6123  0.3489 -0.6457
 2880SOL     H134839   3.582   1.694   1.006 -0.7181  0.2037  0.0289
 2880SOL     H234840   3.464   1.782   0.974  0.0734  0.5918 -1.9238
 2881SOL    OH234841   5.848   3.877   7.884  0.2257 -0.4716 -0.1255
 2881SOL     H134842   5.913   3.836   7.942  0.2653 -2.3989 -1.4563
 2881SOL     H234843   5.767   3.877   7.934  0.5351 -1.0084  0.3847
 2882SOL    OH234844   3.873   3.498   0.255  0.0875  0.9001 -0.9159
 2882SOL     H134845   3.926   3.457   0.186  0.9344  1.2526 -0.4809
 2882SOL     H234846   3.889   3.445   0.333  0.9386  1.8403 -0.4310
 2883SOL    OH234847   1.469   3.822   2.279 -0.8083 -0.4584 -0.5002
 2883SOL     H134848   1.555   3.779   2.269 -0.5369  0.0005 -0.1258
 2883SOL     H234849   1.446   3.808   2.371 -0.4996  0.6204 -0.2614
 2884SOL    OH234850   1.513   4.620   2.377 -0.2534  0.2334  0.5335
 2884SOL     H134851   1.529   4.637   2.470 -0.2604  1.4884  0.3078
 2884SOL     H234852   1.514   4.706   2.336 -3.3600  0.0004 -0.1559
 2885SOL    OH234853   5.085   3.724   0.703 -0.3549 -0.1850  0.0889
 2885SOL     H134854   5.176   3.750   0.718  0.3166 -3.2033  1.4309
 2885SOL     H234855   5.074   3.729   0.608  0.8757  1.1743 -0.0020
 2886SOL    OH234856   4.263   7.338   7.211  0.2455  0.4053 -0.8954
 2886SOL     H134857   4.305   7.254   7.233 -1.8596 -0.4513  0.0545
 2886SOL     H234858   4.302   7.400   7.272 -1.0220 -0.7159  1.1184
 2887SOL    OH234859   0.785   0.936   2.099  0.0708  0.3285  0.4827
 2887SOL     H134860   0.847   1.003   2.128 -0.1325  0.0570  1.5563
 2887SOL     H234861   0.828   0.853   2.120  0.7095  0.0868 -1.6326
 2888SOL    OH234862   5.704   6.726   0.917  0.2317  0.2376 -0.3442
 2888SOL     H134863   5.752   6.799   0.956  1.3263  1.2249 -3.4426
 2888SOL     H234864   5.612   6.743   0.938  0.7216  1.1093  1.1503
 2889SOL    OH234865   6.243   4.290   7.954  0.9061 -0.0864  0.9847
 2889SOL     H134866   6.306   4.358   7.976  1.0878  0.6768 -1.6667
 2889SOL     H234867   6.165   4.311   8.004  1.0093  2.0165  0.3013
 2890SOL    OH234868   5.101   1.078   0.393  0.3495  0.7935 -0.1961
 2890SOL     H134869   5.057   1.029   0.462 -0.9224  1.2336 -0.6626
 2890SOL     H234870   5.075   1.034   0.312  0.3688  1.3639 -0.5144
 2891SOL    OH234871   2.278   4.162   1.936  0.2760  0.5605  0.2026
 2891SOL     H134872   2.301   4.130   2.023  0.0206  0.7740  0.3496
 2891SOL     H234873   2.304   4.092   1.877  1.1375  0.7291  0.3834
 2892SOL    OH234874   0.546   0.664   7.334 -0.0762 -0.1946  0.5022
 2892SOL     H134875   0.527   0.570   7.340 -0.8134  0.0222  1.6605
 2892SOL     H234876   0.494   0.704   7.404  0.0654  1.1073 -0.1139
 2893SOL    OH234877   4.609   0.225   2.006  0.3418  0.6942 -0.0482
 2893SOL     H134878   4.558   0.156   2.048 -0.4301  0.5510 -1.1962
 2893SOL     H234879   4.597   0.210   1.912  2.1796  0.8990 -0.3384
 2894SOL    OH234880   1.991   5.736   1.320  0.0196 -0.4260 -0.1918
 2894SOL     H134881   1.898   5.737   1.339 -0.2660 -0.5316 -1.5739
 2894SOL     H234882   2.001   5.679   1.244  1.2147 -0.4839 -0.0154
 2895SOL    OH234883   7.195   5.024   6.261 -0.5867  0.2647 -0.3732
 2895SOL     H134884   7.140   5.100   6.279  0.3168  0.2240  2.7054
 2895SOL     H234885   7.271   5.034   6.319  1.2230 -1.2476 -2.3652
 2896SOL    OH234886   3.226   7.338   1.044 -0.0698  0.6064  0.5356
 2896SOL     H134887   3.235   7.251   1.005 -3.9681  0.0990  0.6144
 2896SOL     H234888   3.254   7.398   0.975 -0.3060 -0.5914 -0.6237
 2897SOL    OH234889   3.417   1.235   1.839  0.0122  0.0325  0.5923
 2897SOL     H134890   3.418   1.312   1.783  2.5861 -0.1927  0.2458
 2897SOL     H234891   3.463   1.263   1.919  0.1505 -0.8680  0.8330
 2898SOL    OH234892   1.329   4.192   1.485 -0.3992  0.1361 -0.5133
 2898SOL     H134893   1.363   4.276   1.452 -0.4099  0.9161  1.4184
 2898SOL     H234894   1.234   4.200   1.478 -0.3385 -0.8586 -3.0240
 2899SOL    OH234895   4.921   4.521   7.837 -0.0464  0.1461  0.2074
 2899SOL     H134896   4.988   4.491   7.775 -1.3759  0.7558 -1.5745
 2899SOL     H234897   4.915   4.615   7.822 -2.2519 -0.0946 -0.6693
 2900SOL    OH234898   4.396   1.649   0.095 -0.2739  0.0479 -0.5189
 2900SOL     H134899   4.472   1.601   0.063 -0.9997  0.4180 -2.8970
 2900SOL     H234900   4.431   1.735   0.120  0.0666  0.2793 -1.7777
 2901SOL    OH234901   7.649   3.280   7.674  0.5402  0.1007 -0.0990
 2901SOL     H134902   7.719   3.327   7.720 -0.7883  0.6779  1.3967
 2901SOL     H234903   7.621   3.213   7.736 -0.0444 -0.3074 -0.8023
 2902SOL    OH234904   6.060   3.915   1.476 -0.2301 -0.2217  0.0671
 2902SOL     H134905   6.088   3.950   1.391 -1.2901  0.7401  0.1086
 2902SOL     H234906   6.031   3.992   1.524  0.4031 -0.7628  1.3279
 2903SOL    OH234907   1.407   0.594   1.240  0.1379 -0.5380 -0.4749
 2903SOL     H134908   1.332   0.648   1.266 -0.2604 -1.2616 -0.0906
 2903SOL     H234909   1.481   0.632   1.286  0.0060  0.1847 -0.8523
 2904SOL    OH234910   3.628   2.897   7.474  0.4025 -0.4734  0.4738
 2904SOL     H134911   3.625   2.819   7.418 -0.7875  0.3938 -0.7024
 2904SOL     H234912   3.540   2.904   7.510  1.0942 -0.8846  2.3002
 2905SOL    OH234913   6.705   3.187   0.785 -0.3871 -0.8181  0.0912
 2905SOL     H134914   6.789   3.149   0.758 -0.3134 -1.3050  0.9667
 2905SOL     H234915   6.657   3.199   0.703  0.1657 -1.4312 -0.3354
 2906SOL    OH234916   0.679   5.959   5.482 -0.0096 -0.1951 -0.0628
 2906SOL     H134917   0.721   6.014   5.548 -0.8483  0.0262  0.2948
 2906SOL     H234918   0.747   5.897   5.455  0.6582  0.4135  0.2127
 2907SOL    OH234919   4.877   7.045   7.776  0.2777  0.1828 -0.1135
 2907SOL     H134920   4.834   7.073   7.857  0.4202 -3.3911  1.3184
 2907SOL     H234921   4.820   7.077   7.706 -0.1953  2.7886  1.3948
 2908SOL    OH234922   0.140   5.633   6.723 -0.1684  0.1362 -0.3448
 2908SOL     H134923   0.057   5.588   6.736 -0.1154  0.0714 -0.2320
 2908SOL     H234924   0.163   5.615   6.632 -0.4283  0.4033 -0.4635
 2909SOL    OH234925   3.201   3.046   7.917  0.2801  0.2529 -0.4707
 2909SOL     H134926   3.176   3.026   8.007  0.1645  0.2334 -0.5087
 2909SOL     H234927   3.138   2.999   7.862  0.7747 -0.3013 -0.5685
 2910SOL    OH234928   2.565   5.027   6.991 -0.1264  0.4263  1.2722
 2910SOL     H134929   2.511   4.950   6.970  0.9965 -0.1795  0.5528
 2910SOL     H234930   2.585   5.066   6.906  0.6975  0.5479  1.5140
 2911SOL    OH234931   5.837   0.016   1.578  0.3061 -0.2917  0.7438
 2911SOL     H134932   5.786   0.093   1.602 -0.0737 -0.3248  0.0684
 2911SOL     H234933   5.917   0.050   1.538  0.0077 -0.2484  0.1825
 2912SOL    OH234934   6.765   2.977   5.848  0.1353  0.4303  0.0344
 2912SOL     H134935   6.703   3.050   5.846 -0.0438  0.2978  0.6418
 2912SOL     H234936   6.798   2.972   5.758 -0.3025  0.8708 -0.1584
 2913SOL    OH234937   5.653   0.005   1.195  0.2167  0.2053  0.2572
 2913SOL     H134938   5.720  -0.039   1.143 -0.8675  0.1128 -1.0815
 2913SOL     H234939   5.696   0.084   1.227  0.4870  0.9918 -1.9613
 2914SOL    OH234940   0.578   0.021   1.937 -0.1107 -0.0013  0.0443
 2914SOL     H134941   0.513   0.090   1.936 -1.8147 -1.5687 -0.1592
 2914SOL     H234942   0.604   0.009   1.846  0.0461  0.2190  0.0585
 2915SOL    OH234943   5.853   2.559   6.545 -0.0696  0.0772  0.6120
 2915SOL     H134944   5.841   2.616   6.469 -0.5762  0.1659  0.7578
 2915SOL     H234945   5.876   2.619   6.617  1.5655 -0.1178  0.2688
 2916SOL    OH234946   3.659   3.604   0.901  0.5078  0.3159  0.6978
 2916SOL     H134947   3.639   3.659   0.977 -0.3404 -0.8723  1.3504
 2916SOL     H234948   3.586   3.621   0.840 -0.2061 -0.7199  1.2556
 2917SOL    OH234949   4.101   0.985   2.383 -0.6336 -0.1443 -0.3967
 2917SOL     H134950   4.063   1.024   2.462  0.6536 -0.5025  0.4186
 2917SOL     H234951   4.190   0.960   2.410 -0.5779 -1.3017 -1.6393
 2918SOL    OH234952   4.287   4.327   8.104 -0.6499 -0.4424 -0.2754
 2918SOL     H134953   4.374   4.311   8.065 -1.7200 -0.9476 -2.5569
 2918SOL     H234954   4.306   4.356   8.193  1.8923 -0.1990 -0.8396
 2919SOL    OH234955   5.513   5.379   0.041 -0.0140  0.2534  0.5294
 2919SOL     H134956   5.507   5.447   0.109  2.1144 -0.0003  0.9993
 2919SOL     H234957   5.458   5.308   0.073 -0.1494  0.7076  1.3254
 2920SOL    OH234958   3.995   1.325   0.510 -0.1720 -0.3069  0.2326
 2920SOL     H134959   4.069   1.382   0.530  0.5877 -0.1995 -2.6692
 2920SOL     H234960   3.993   1.261   0.581  1.1120  1.2185  1.6732
 2921SOL    OH234961   4.711   2.787   2.833  0.8266 -0.3178  0.1090
 2921SOL     H134962   4.618   2.807   2.822  0.5494 -0.7562  1.5177
 2921SOL     H234963   4.712   2.703   2.880  1.8840  1.2469  3.0046
 2922SOL    OH234964   1.368   3.322   0.354 -0.5271  0.2957 -0.5291
 2922SOL     H134965   1.369   3.305   0.259  0.5955  0.2146 -0.5119
 2922SOL     H234966   1.432   3.392   0.366 -1.1243  0.7327  0.0948
 2923SOL    OH234967   0.460   7.647   8.000 -0.1020 -0.5757  0.0167
 2923SOL     H134968   0.441   7.653   8.093 -1.2451  0.1069 -0.2434
 2923SOL     H234969   0.461   7.738   7.970  0.8952 -0.7598 -0.5117
 2924SOL    OH234970   1.820   7.165   7.560  0.2711  0.1404 -0.3330
 2924SOL     H134971   1.731   7.185   7.529  0.3156  0.4975 -0.2370
 2924SOL     H234972   1.806   7.115   7.641  0.1530  0.6250 -0.0467
 2925SOL    OH234973   5.642   1.583   7.507  0.6056  0.0599  0.4679
 2925SOL     H134974   5.688   1.518   7.453  0.4476 -1.1821  1.7901
 2925SOL     H234975   5.563   1.538   7.536  0.6092  0.7568  1.5889
 2926SOL    OH234976   2.779   1.423   1.902  0.4565  0.1481 -0.1181
 2926SOL     H134977   2.838   1.485   1.860  0.2218  0.3607 -0.1335
 2926SOL     H234978   2.759   1.464   1.987  1.7813 -0.7745  0.6589
 2927SOL    OH234979   1.355   7.856   7.419  0.0533  0.3665 -0.5882
 2927SOL     H134980   1.368   7.946   7.389 -0.2574  0.7748  0.4837
 2927SOL     H234981   1.435   7.836   7.468 -0.6344  0.6919  0.6915
 2928SOL    OH234982   3.223   2.297   7.409  0.6683 -0.3198  0.0035
 2928SOL     H134983   3.212   2.213   7.365  1.0451 -1.5355  2.1471
 2928SOL     H234984   3.245   2.358   7.339  2.0081 -2.3439 -1.4087
 2929SOL    OH234985   1.406   6.840   7.571  0.1050 -0.1099 -0.1985
 2929SOL     H134986   1.495   6.864   7.598  0.2455  0.9652 -1.5604
 2929SOL     H234987   1.413   6.748   7.545  0.9252  0.1010 -0.7637
 2930SOL    OH234988   6.579   7.393   6.556 -0.5450 -0.1066 -0.5100
 2930SOL     H134989   6.639   7.387   6.630  1.6206 -0.8530 -2.2681
 2930SOL     H234990   6.528   7.312   6.560  0.5794 -0.8443 -0.6417
 2931SOL    OH234991   6.304   5.274   7.803  0.6161 -0.0168  0.0636
 2931SOL     H134992   6.397   5.251   7.805  0.1849 -1.7853  2.3307
 2931SOL     H234993   6.258   5.191   7.815 -1.3062  0.6989 -1.9622
 2932SOL    OH234994   6.362   7.292   1.405  0.2777 -0.3248 -0.3203
 2932SOL     H134995   6.451   7.285   1.371  0.3315  2.0638 -0.7577
 2932SOL     H234996   6.369   7.261   1.496  1.4009 -0.8077 -0.5633
 2933SOL    OH234997   5.029   3.472   0.240 -0.0027 -0.0478 -0.3215
 2933SOL     H134998   5.051   3.534   0.309 -1.0491  0.1655 -0.1713
 2933SOL     H234999   4.933   3.464   0.244  0.0455 -1.0382 -0.8780
 2934SOL    OH235000   5.323   6.195   2.485 -0.0999  0.4937 -0.1775
 2934SOL     H135001   5.262   6.238   2.545 -1.2195  1.0854 -1.6940
 2934SOL     H235002   5.328   6.255   2.410  0.8561 -0.4798 -0.8966
 2935SOL    OH235003   5.867   3.794   7.599 -0.1937  0.1798  0.1955
 2935SOL     H135004   5.935   3.727   7.596  1.6474  2.0081 -0.3266
 2935SOL     H235005   5.872   3.829   7.688 -2.6303 -1.8076  1.1683
 2936SOL    OH235006   2.944   0.346   7.161 -0.0280  0.4748  0.5054
 2936SOL     H135007   2.998   0.391   7.097 -2.0986  0.3422 -1.4118
 2936SOL     H235008   3.005   0.317   7.229  2.4014 -0.2701 -1.9131
 2937SOL    OH235009   3.977   0.200   7.571 -0.3425  1.1614  0.3228
 2937SOL     H135010   3.999   0.180   7.662 -1.2052  2.7446  0.9045
 2937SOL     H235011   3.965   0.295   7.569  1.6391  1.4179 -1.8869
 2938SOL    OH235012   4.192   1.388   6.386 -0.6606  0.3937 -0.5802
 2938SOL     H135013   4.228   1.464   6.339 -0.1327  0.5544  0.0625
 2938SOL     H235014   4.097   1.395   6.373 -0.5064  0.2341 -1.9015
 2939SOL    OH235015   5.208   0.247   6.492 -0.1788  0.5979  0.3900
 2939SOL     H135016   5.195   0.234   6.398  1.5951  1.4796  0.0104
 2939SOL     H235017   5.222   0.159   6.527  0.3339  0.3845 -0.3492
 2940SOL    OH235018   2.319   7.498   6.986  0.0226  0.1829 -0.3902
 2940SOL     H135019   2.351   7.566   6.927 -1.3805  0.9378 -0.3148
 2940SOL     H235020   2.349   7.524   7.073  0.8649 -0.1586 -0.5794
 2941SOL    OH235021   5.014   6.522   1.919 -0.3961 -0.1416 -0.7815
 2941SOL     H135022   4.960   6.486   1.849 -1.9382  0.2828  0.1712
 2941SOL     H235023   5.004   6.617   1.910  0.5831 -0.0453 -0.8946
 2942SOL    OH235024   0.093   2.489   7.003 -0.6121 -0.8759 -0.0425
 2942SOL     H135025   0.189   2.496   7.008 -0.5994 -1.7748  1.6325
 2942SOL     H235026   0.078   2.406   6.958 -0.5973 -0.6790 -0.4073
 2943SOL    OH235027   4.030   4.777   1.677  0.0162  0.0223  0.5454
 2943SOL     H135028   3.946   4.813   1.651  0.7270  2.5752  1.6848
 2943SOL     H235029   4.033   4.787   1.772  1.4460 -0.4402  0.5631
 2944SOL    OH235030   0.662   4.998   6.544  0.0653  0.9432 -0.1004
 2944SOL     H135031   0.732   4.968   6.485 -0.7250 -1.1904 -0.0042
 2944SOL     H235032   0.584   5.003   6.488 -0.9417 -2.1766  0.9194
 2945SOL    OH235033   5.922   5.535   7.641  0.4965 -0.3495 -0.2110
 2945SOL     H135034   5.856   5.511   7.576  0.8408  1.4534 -1.2700
 2945SOL     H235035   6.000   5.556   7.590  1.5324 -1.2658  0.9531
 2946SOL    OH235036   4.914   1.370   8.186  0.4842 -0.2223 -0.7146
 2946SOL     H135037   4.939   1.414   8.105  0.3986 -0.3388 -0.8037
 2946SOL     H235038   4.966   1.413   8.254 -0.5297  0.8564 -0.6169
 2947SOL    OH235039   6.666   2.921   6.440 -0.2941 -0.0510  0.4162
 2947SOL     H135040   6.750   2.963   6.424  0.7147 -2.0816  0.1967
 2947SOL     H235041   6.622   2.977   6.504  2.0611 -0.0396  2.0662
 2948SOL    OH235042   0.588   1.640   7.564  0.9860 -0.2229  0.4117
 2948SOL     H135043   0.583   1.663   7.471 -0.3078 -0.0950  0.5141
 2948SOL     H235044   0.540   1.558   7.571 -0.4529  0.6850  1.2824
 2949SOL    OH235045   5.385   1.847   1.639 -0.2685  0.9844 -0.0922
 2949SOL     H135046   5.439   1.899   1.699 -1.6674 -0.2232  2.2900
 2949SOL     H235047   5.299   1.844   1.681 -0.7677 -1.5011 -1.1986
 2950SOL    OH235048   7.623   2.891   1.013  0.2373 -0.1029  0.5074
 2950SOL     H135049   7.545   2.855   1.055  0.0089  0.2255  0.3718
 2950SOL     H235050   7.684   2.908   1.085  0.6813 -1.5741  0.4789
 2951SOL    OH235051   4.246   2.179   8.197 -0.5743  0.1042 -0.0519
 2951SOL     H135052   4.177   2.159   8.134 -0.8101  0.6502  0.0350
 2951SOL     H235053   4.274   2.268   8.176 -2.4452  1.2876  2.2155
 2952SOL    OH235054   0.490   3.788  -0.027  0.2771 -0.5404 -0.2161
 2952SOL     H135055   0.401   3.753  -0.030  0.4894 -1.1541  0.5994
 2952SOL     H235056   0.506   3.806   0.065  0.3286  1.3202 -0.5834
 2953SOL    OH235057   1.088   6.662   7.570  0.3880 -0.2930  0.0144
 2953SOL     H135058   1.175   6.657   7.529  0.6333  0.4025  0.4517
 2953SOL     H235059   1.030   6.689   7.499  0.5713 -0.4971 -0.2156
 2954SOL    OH235060   5.455   7.706   6.707  0.0392  0.1843  0.2458
 2954SOL     H135061   5.391   7.776   6.711  0.4051  0.5079  0.4148
 2954SOL     H235062   5.513   7.721   6.782  1.7805  1.3111 -1.3004
 2955SOL    OH235063   1.746   5.648   8.052 -0.3278 -0.4652  0.2074
 2955SOL     H135064   1.670   5.691   8.012  0.8502 -0.4364 -2.0383
 2955SOL     H235065   1.815   5.714   8.051  1.1759 -1.9786 -2.2833
 2956SOL    OH235066   1.088   5.733   8.267  0.2403 -0.0880  0.2446
 2956SOL     H135067   1.148   5.660   8.283 -2.7347 -2.8805 -0.9716
 2956SOL     H235068   1.104   5.757   8.175  4.0520  3.6292  1.6630
 2957SOL    OH235069   1.200   0.527   1.822 -0.1801 -0.0124  0.4075
 2957SOL     H135070   1.168   0.600   1.769 -0.4607  0.8975  1.7994
 2957SOL     H235071   1.122   0.495   1.868 -0.0253 -1.0847 -0.0695
 2958SOL    OH235072  -0.001   4.684   0.914  0.2210  0.2009  0.3906
 2958SOL     H135073   0.049   4.618   0.962  0.9460  0.4466 -0.0216
 2958SOL     H235074   0.004   4.762   0.969 -0.6830 -0.0921  0.9048
 2959SOL    OH235075   3.431   4.911   6.698 -0.7652 -0.3120  0.0938
 2959SOL     H135076   3.500   4.962   6.740 -0.3773 -0.2796 -0.5691
 2959SOL     H235077   3.475   4.830   6.669 -1.0029 -0.3029 -0.3023
 2960SOL    OH235078   7.915   4.446   7.150  0.3675  0.3160  0.1436
 2960SOL     H135079   7.962   4.444   7.066  0.0021 -2.7294 -0.0457
 2960SOL     H235080   7.831   4.405   7.131 -0.0601  0.4023  1.8293
 2961SOL    OH235081   2.013   0.590   6.910 -0.5240 -0.3873 -0.5766
 2961SOL     H135082   2.103   0.600   6.941 -0.6067  0.8441 -0.7245
 2961SOL     H235083   2.022   0.539   6.829  0.1311  0.5705 -1.1147
 2962SOL    OH235084   0.558   2.236   0.350 -0.0258  0.0157 -0.0926
 2962SOL     H135085   0.648   2.230   0.318 -0.1215  0.7210 -0.5137
 2962SOL     H235086   0.507   2.187   0.285 -0.0957  0.6458 -0.5256
 2963SOL    OH235087   3.286   0.656   6.837 -0.9317 -0.0294  0.6861
 2963SOL     H135088   3.354   0.674   6.772 -0.6407 -1.6203  0.5337
 2963SOL     H235089   3.248   0.742   6.856 -0.0651  0.6416 -0.5312
 2964SOL    OH235090   3.420   5.233   0.451  0.0880  0.2118 -0.3380
 2964SOL     H135091   3.474   5.174   0.504  0.2208  0.8471  0.2388
 2964SOL     H235092   3.424   5.317   0.497 -0.4343  0.5649 -0.9335
 2965SOL    OH235093   0.440   6.964   0.587  0.2823  0.5323 -0.6284
 2965SOL     H135094   0.519   6.979   0.639  1.6599 -1.5522 -2.0547
 2965SOL     H235095   0.456   7.012   0.506  0.5993 -0.7904 -1.3667
 2966SOL    OH235096   3.846   5.478   7.853  0.0809 -0.1660  0.9218
 2966SOL     H135097   3.756   5.453   7.875  0.3517 -2.0829  0.0079
 2966SOL     H235098   3.899   5.403   7.881  1.2745  0.5280  0.5572
 2967SOL    OH235099   5.399   4.196   1.708 -0.2054  0.0523 -0.5201
 2967SOL     H135100   5.322   4.142   1.722  0.2000 -0.7645 -1.3862
 2967SOL     H235101   5.442   4.157   1.632  1.3321  0.1623  0.2635
 2968SOL    OH235102   6.044   6.500   0.403  0.5058  0.2195  0.3869
 2968SOL     H135103   6.134   6.468   0.417 -0.0538 -2.2151 -1.2756
 2968SOL     H235104   5.991   6.447   0.463  0.0243  0.7838  0.4583
 2969SOL    OH235105   7.387   2.518   6.523  0.0727  0.1981  0.0626
 2969SOL     H135106   7.437   2.438   6.506 -0.2120 -0.0178  0.2264
 2969SOL     H235107   7.368   2.553   6.436  2.4505  1.5247  0.0345
 2970SOL    OH235108   0.884   5.930   7.236  0.1934 -0.2593 -0.0284
 2970SOL     H135109   0.847   5.871   7.171  2.5566  0.5057 -2.1670
 2970SOL     H235110   0.974   5.898   7.248  0.7977  1.5377  0.4317
 2971SOL    OH235111   0.636   0.342   7.545  0.0694 -0.1664  0.0521
 2971SOL     H135112   0.590   0.263   7.575 -0.5333  0.0919 -0.1898
 2971SOL     H235113   0.569   0.409   7.542  0.9452  0.8361  2.0175
 2972SOL    OH235114   3.980   3.324   6.870 -0.2624  0.0288 -0.0614
 2972SOL     H135115   3.892   3.357   6.854 -0.8457 -1.6395 -0.3452
 2972SOL     H235116   3.984   3.310   6.965 -0.0098  0.9251  0.0604
 2973SOL    OH235117   2.164   0.551   7.191  0.6790  0.5780  0.1578
 2973SOL     H135118   2.129   0.462   7.192  0.7793  0.5424  0.7302
 2973SOL     H235119   2.212   0.557   7.109 -1.2738  0.8601 -0.9998
 2974SOL    OH235120   2.653   0.578   7.043 -0.0393  0.5331  0.2278
 2974SOL     H135121   2.572   0.546   7.083 -1.1859  1.7730 -1.0307
 2974SOL     H235122   2.689   0.638   7.107 -0.2958  0.2338  0.6568
 2975SOL    OH235123   6.744   0.542   7.217  0.4653 -0.2242 -0.4360
 2975SOL     H135124   6.679   0.596   7.260 -1.3260 -1.3847 -1.6397
 2975SOL     H235125   6.781   0.598   7.148  1.5496  0.7926  0.9410
 2976SOL    OH235126   5.553   6.526   2.276 -1.1802 -0.0602  0.2153
 2976SOL     H135127   5.607   6.448   2.282 -0.7870 -0.0475 -2.4327
 2976SOL     H235128   5.469   6.501   2.316 -0.4320 -1.2125  1.0915
 2977SOL    OH235129   2.126   2.541   1.003 -0.2643 -0.2380  0.5522
 2977SOL     H135130   2.109   2.606   1.071  2.2018  2.1938 -0.9837
 2977SOL     H235131   2.176   2.473   1.047 -0.1806  0.4665  1.5734
 2978SOL    OH235132   4.250   3.798   6.417 -0.1471 -0.3755 -0.2813
 2978SOL     H135133   4.288   3.808   6.329  0.7294 -1.8364 -0.0994
 2978SOL     H235134   4.222   3.707   6.420  2.5622 -1.2272  1.9632
 2979SOL    OH235135   3.511   5.849   7.095 -0.3896  0.2314 -0.5082
 2979SOL     H135136   3.496   5.774   7.038  0.4613 -0.4510  0.1540
 2979SOL     H235137   3.493   5.816   7.183 -0.0633  0.8135 -0.2164
 2980SOL    OH235138   4.502   3.237   0.076  0.1484 -0.6877  0.6880
 2980SOL     H135139   4.450   3.309   0.040 -3.1099 -2.0744  2.3983
 2980SOL     H235140   4.514   3.177   0.002 -1.6370 -0.8153  0.4594
 2981SOL    OH235141   2.468   1.967   0.537  0.2172 -0.1142 -0.9131
 2981SOL     H135142   2.450   1.977   0.443 -0.7663  0.5785 -0.6637
 2981SOL     H235143   2.416   1.891   0.563 -1.5669  1.2352 -0.4165
 2982SOL    OH235144   5.425   5.781   0.805 -0.0630 -0.2483 -0.3364
 2982SOL     H135145   5.399   5.839   0.877 -0.4894 -0.7518 -0.0808
 2982SOL     H235146   5.483   5.717   0.847  0.3011 -0.0847 -0.5917
 2983SOL    OH235147   0.121   0.230   7.501  0.5841  0.2151  0.4155
 2983SOL     H135148   0.088   0.206   7.587  0.4744  1.6641  0.7907
 2983SOL     H235149   0.052   0.204   7.440  0.6391 -0.7534  0.7583
 2984SOL    OH235150   6.879   0.186   7.215  0.0576 -0.3504 -0.0822
 2984SOL     H135151   6.911   0.097   7.232 -1.1543 -0.9247 -0.7653
 2984SOL     H235152   6.802   0.174   7.159 -2.0162  0.9722  2.4106
 2985SOL    OH235153   1.020   7.561   7.081  0.2371  0.2399  0.4706
 2985SOL     H135154   1.050   7.473   7.055 -0.1678  0.1152  0.4261
 2985SOL     H235155   1.094   7.598   7.129 -0.1932 -0.7503  1.9296
 2986SOL    OH235156   7.890   3.843   7.770 -0.3375 -0.4118 -0.6949
 2986SOL     H135157   7.862   3.891   7.692  0.7549 -0.4961 -1.1484
 2986SOL     H235158   7.941   3.907   7.820 -2.1588  0.0440  0.6242
 2987SOL    OH235159   5.160   2.800   7.692 -0.4913  0.3679 -0.5287
 2987SOL     H135160   5.209   2.848   7.626  1.0473  0.7923  0.8779
 2987SOL     H235161   5.180   2.845   7.774 -0.5165 -1.5177  0.5505
 2988SOL    OH235162   0.099   1.390   1.574 -0.8752  0.1771  0.2416
 2988SOL     H135163   0.069   1.449   1.505 -1.2710  0.2297  0.4581
 2988SOL     H235164   0.160   1.331   1.530 -1.4431 -0.0554 -0.2483
 2989SOL    OH235165   4.951   5.544   6.232  0.1757  0.4742  0.1826
 2989SOL     H135166   4.962   5.616   6.170  0.9498 -0.8606 -1.2629
 2989SOL     H235167   4.862   5.513   6.216 -0.3091  1.3728  1.1042
 2990SOL    OH235168   2.923   0.822   1.014 -0.0930 -0.0217 -0.1402
 2990SOL     H135169   2.882   0.893   1.062  0.8413  0.6295 -0.2933
 2990SOL     H235170   2.968   0.864   0.941 -0.3690 -0.8700 -0.8139
 2991SOL    OH235171   4.834   2.700   7.284  0.2485 -0.7106  0.5786
 2991SOL     H135172   4.900   2.737   7.342  1.0587 -0.7276 -0.3244
 2991SOL     H235173   4.871   2.618   7.254 -1.0241 -1.6899  1.5962
 2992SOL    OH235174   7.554   1.795   1.654  0.0902 -0.2775  0.4764
 2992SOL     H135175   7.466   1.832   1.650  0.5948  0.7985 -1.3359
 2992SOL     H235176   7.548   1.725   1.720 -1.6759  0.8964  1.6143
 2993SOL    OH235177   4.463   2.429   2.068 -0.0631  0.4810 -0.0596
 2993SOL     H135178   4.513   2.394   2.141  1.1309 -1.2705 -1.6534
 2993SOL     H235179   4.464   2.523   2.081 -4.3710  0.0699  5.0180
 2994SOL    OH235180   0.754   3.911   5.813  0.1356 -0.2221  0.0142
 2994SOL     H135181   0.669   3.953   5.803  0.0950 -0.3004  0.0239
 2994SOL     H235182   0.766   3.863   5.731  0.6091  0.5694 -0.3798
 2995SOL    OH235183   3.329   1.378   7.080 -0.4606 -0.4082 -0.2725
 2995SOL     H135184   3.293   1.467   7.075 -0.0167  0.1411  3.8055
 2995SOL     H235185   3.253   1.321   7.078 -0.8119  0.1138 -2.0708
 2996SOL    OH235186   0.928   2.432   0.020 -0.3227 -0.2824  0.0819
 2996SOL     H135187   0.961   2.357  -0.030  1.7011  1.1289 -0.7621
 2996SOL     H235188   0.978   2.429   0.102 -0.7888 -0.3009  0.3637
 2997SOL    OH235189   2.544   6.677   1.114 -0.0112  0.1652 -0.4706
 2997SOL     H135190   2.615   6.615   1.094  0.1127 -0.1958  1.0523
 2997SOL     H235191   2.511   6.649   1.199  0.3051  2.4293  0.4286
 2998SOL    OH235192   3.782   1.820   7.612  0.1989  0.1175 -0.3167
 2998SOL     H135193   3.708   1.782   7.658  0.0656 -0.2961 -0.8579
 2998SOL     H235194   3.833   1.864   7.679  1.5339 -2.8674  0.7111
 2999SOL    OH235195   5.567   2.636   8.135 -0.6008 -0.0747  0.4676
 2999SOL     H135196   5.507   2.705   8.162 -0.3735  0.1017  0.5297
 2999SOL     H235197   5.512   2.571   8.092 -0.7602  0.3240  0.0732
 3000SOL    OH235198   4.651   2.801   0.897 -0.4221 -0.0965 -0.5914
 3000SOL     H135199   4.734   2.766   0.863  1.8727  2.4565  2.1047
 3000SOL     H235200   4.662   2.799   0.992 -3.6254 -0.0371 -0.1918
 3001SOL    OH235201   2.648   6.669   6.217 -0.2506 -0.2539  0.5757
 3001SOL     H135202   2.644   6.660   6.312  0.4603 -0.6876  0.5692
 3001SOL     H235203   2.741   6.684   6.199 -0.3583 -0.3744 -0.0713
 3002SOL    OH235204   3.312   4.760   6.423  0.5053  0.4040  0.3309
 3002SOL     H135205   3.355   4.841   6.395 -0.3261  0.0156 -2.1172
 3002SOL     H235206   3.376   4.717   6.480  1.8004  1.7145 -0.1236
 3003SOL    OH235207   5.315   6.511   1.818  0.4704 -0.4031 -0.0154
 3003SOL     H135208   5.382   6.494   1.752 -1.3035 -1.2777 -1.6177
 3003SOL     H235209   5.233   6.514   1.770 -0.7187  0.2346  1.9804
 3004SOL    OH235210   3.420   1.546   7.772  1.1161  0.0478 -0.1391
 3004SOL     H135211   3.415   1.543   7.677  0.9415  1.7576 -0.2040
 3004SOL     H235212   3.440   1.638   7.792  0.5000 -0.1559  1.4969
 3005SOL    OH235213   1.118   1.145   0.212  0.2056  0.2787  0.4477
 3005SOL     H135214   1.066   1.151   0.132  1.0777 -0.1829 -0.1571
 3005SOL     H235215   1.129   1.051   0.227  2.7304  0.3614 -0.6579
 3006SOL    OH235216   1.173   2.614   2.033  0.0995 -0.0568 -0.1919
 3006SOL     H135217   1.185   2.522   2.012 -0.9892 -0.7333  2.0434
 3006SOL     H235218   1.262   2.650   2.033  0.4702 -0.8967 -1.8157
 3007SOL    OH235219   0.254   6.314   7.866  0.2214 -0.1200 -0.0720
 3007SOL     H135220   0.181   6.338   7.924  2.9823 -1.2459  4.1022
 3007SOL     H235221   0.255   6.218   7.867  1.1211 -0.1271 -0.9189
 3008SOL    OH235222   4.575   0.168   1.723 -0.3202 -0.2113 -0.0004
 3008SOL     H135223   4.669   0.180   1.709 -0.4315 -0.0052 -0.6310
 3008SOL     H235224   4.553   0.090   1.672 -0.4871 -0.2594  0.1470
 3009SOL    OH235225   5.795   3.394   1.093  0.0126 -0.7015  0.5232
 3009SOL     H135226   5.819   3.485   1.077  1.5338 -1.2569 -0.4915
 3009SOL     H235227   5.817   3.380   1.185 -0.8373  0.1383  0.8582
 3010SOL    OH235228   4.772   6.506   0.046 -0.0160  0.1878  0.0812
 3010SOL     H135229   4.801   6.596   0.031  2.3202 -0.6067 -0.4059
 3010SOL     H235230   4.750   6.503   0.139  0.5759  1.0698  0.2522
 3011SOL    OH235231   3.352   5.689   0.205  0.3076 -0.0823  0.4837
 3011SOL     H135232   3.298   5.711   0.281 -0.0871  1.9678 -0.3443
 3011SOL     H235233   3.318   5.605   0.175 -1.6352  0.5913  0.7194
 3012SOL    OH235234   2.494   0.268   1.009  0.5909  0.2722  0.3000
 3012SOL     H135235   2.525   0.178   1.003  1.4066  0.5558  0.2533
 3012SOL     H235236   2.573   0.322   1.000  0.1084  0.9911  0.3076
 3013SOL    OH235237   5.165   7.634   6.446 -0.5244 -0.0980 -0.3135
 3013SOL     H135238   5.154   7.720   6.487 -0.6913 -0.9926  1.6034
 3013SOL     H235239   5.162   7.651   6.352 -1.2857  1.8973  0.0463
 3014SOL    OH235240   3.172   0.261   7.360 -0.7391  0.2857 -0.0553
 3014SOL     H135241   3.120   0.202   7.415  0.0270 -0.1040  0.2647
 3014SOL     H235242   3.247   0.208   7.333 -0.3442  0.9374 -0.2496
 3015SOL    OH235243   0.711   3.706   6.710  0.7824 -0.6404 -0.1500
 3015SOL     H135244   0.674   3.647   6.644  0.2817 -0.4009 -0.0846
 3015SOL     H235245   0.639   3.721   6.772  0.6255  0.7641 -0.6547
 3016SOL    OH235246   5.379   7.408   7.454 -0.7211 -0.1970 -0.9357
 3016SOL     H135247   5.372   7.313   7.454  0.6959 -0.3759  1.7630
 3016SOL     H235248   5.289   7.440   7.445 -0.9377 -1.7120 -4.6867
 3017SOL    OH235249   3.816   1.254   0.271 -0.1102  0.2038 -0.1977
 3017SOL     H135250   3.853   1.166   0.261 -1.0119 -0.2448  0.4003
 3017SOL     H235251   3.756   1.247   0.346  2.5906  2.2006  2.2902
 3018SOL    OH235252   5.145   3.596   0.003  0.1769 -0.0956  0.7464
 3018SOL     H135253   5.057   3.601  -0.032  0.4917 -1.1829 -0.1975
 3018SOL     H235254   5.134   3.560   0.091 -0.4698  1.3444  1.2713
 3019SOL    OH235255   3.160   5.327   6.420 -0.3431  0.3016  0.1102
 3019SOL     H135256   3.107   5.400   6.387  2.5630  1.1445 -3.0389
 3019SOL     H235257   3.132   5.251   6.368  1.1783  0.6761 -1.3168
 3020SOL    OH235258   3.337   4.378   7.193  0.0308 -0.4758 -0.1152
 3020SOL     H135259   3.321   4.456   7.245 -0.9471  0.6100 -1.9763
 3020SOL     H235260   3.250   4.345   7.170  0.4086 -0.1701 -2.1246
 3021SOL    OH235261   2.336   3.190   0.883  0.1043  0.2434 -1.0405
 3021SOL     H135262   2.315   3.280   0.861 -0.2923  0.3764 -0.1470
 3021SOL     H235263   2.431   3.183   0.872  0.4888  1.4365  1.1679
 3022SOL    OH235264   0.776   2.154   6.636 -0.9033  0.0492  0.7859
 3022SOL     H135265   0.741   2.195   6.714 -1.2248  2.0494 -0.3714
 3022SOL     H235266   0.701   2.147   6.577  0.1806  2.7033 -1.0164
 3023SOL    OH235267   3.954   2.869   7.106 -0.1400 -0.5269 -0.0587
 3023SOL     H135268   3.901   2.862   7.027 -0.8916 -1.8768  0.5425
 3023SOL     H235269   3.899   2.915   7.169  0.3823  0.3706 -0.2519
 3024SOL    OH235270   1.584   0.728   1.905 -0.2357  0.0989  0.1353
 3024SOL     H135271   1.615   0.775   1.983  2.0665 -2.4692  0.8508
 3024SOL     H235272   1.587   0.636   1.931 -2.8338 -0.5867 -1.8559
 3025SOL    OH235273   5.112   4.826   6.532 -0.1506 -0.3395 -0.0521
 3025SOL     H135274   5.147   4.847   6.619  0.9678  0.3956 -0.6630
 3025SOL     H235275   5.178   4.860   6.471 -1.1929 -0.3480 -1.2030
 3026SOL    OH235276   1.342   5.597   2.727  0.2843 -0.2707  0.4695
 3026SOL     H135277   1.428   5.607   2.769  0.2069  0.2302  0.5076
 3026SOL     H235278   1.296   5.679   2.746  0.2959  0.0204 -0.7022
 3027SOL    OH235279   4.354   0.912   1.369  0.4327  0.2146  0.3490
 3027SOL     H135280   4.372   0.854   1.443 -0.1897  0.7988  0.9631
 3027SOL     H235281   4.312   0.988   1.407 -0.5900  0.1937 -0.6941
 3028SOL    OH235282   0.340   7.215   7.551  0.7224  0.4426  0.5141
 3028SOL     H135283   0.371   7.183   7.466 -0.0710 -0.0254  0.3992
 3028SOL     H235284   0.307   7.303   7.533  0.9242  0.5000  0.4202
 3029SOL    OH235285   2.205   3.003   1.924  0.4419  0.0092 -0.3382
 3029SOL     H135286   2.140   2.976   1.989 -1.8220 -1.9261 -3.2138
 3029SOL     H235287   2.193   3.098   1.915 -1.7316 -0.2581 -0.4933
 3030SOL    OH235288   6.715   6.757   1.754  0.4584 -0.2773  0.3485
 3030SOL     H135289   6.718   6.733   1.661 -0.2234  1.4225 -0.1289
 3030SOL     H235290   6.772   6.694   1.797  1.4898 -0.5221 -1.3445
 3031SOL    OH235291   3.203   0.550   8.104 -0.6286  0.0432 -0.6471
 3031SOL     H135292   3.278   0.517   8.054 -1.1231 -0.2092 -1.2337
 3031SOL     H235293   3.195   0.490   8.178  0.5398  0.8307  0.1174
 3032SOL    OH235294   4.489   3.482   7.507 -0.4521 -0.5046 -0.0963
 3032SOL     H135295   4.565   3.472   7.449  0.8238 -0.5502  1.5544
 3032SOL     H235296   4.425   3.530   7.454  1.3539  0.9933 -0.9788
 3033SOL    OH235297   5.162   6.233   7.742 -0.4478 -0.0041 -0.1635
 3033SOL     H135298   5.211   6.266   7.666  0.1761  1.1753  0.7473
 3033SOL     H235299   5.229   6.207   7.805 -0.9738  1.2652  0.9373
 3034SOL    OH235300   1.695   1.370   0.599  0.2338 -0.1556 -0.1603
 3034SOL     H135301   1.780   1.327   0.608 -0.4246 -1.3212  0.7453
 3034SOL     H235302   1.635   1.299   0.575 -1.0029  0.1126  2.0067
 3035SOL    OH235303   7.273   5.811   0.595 -0.1136  0.4695  0.5286
 3035SOL     H135304   7.284   5.874   0.665  1.8886  3.1223 -2.0701
 3035SOL     H235305   7.351   5.756   0.599  0.7252  1.5566 -0.4818
 3036SOL    OH235306   5.735   4.390   0.149  0.2230  0.3658 -0.2412
 3036SOL     H135307   5.820   4.427   0.126 -0.5621  1.2292 -1.8049
 3036SOL     H235308   5.727   4.311   0.095  0.3403 -0.1115  0.4335
 3037SOL    OH235309   0.878   4.250   0.818 -0.5877  0.1464  0.3923
 3037SOL     H135310   0.947   4.191   0.788 -0.8082  0.7306 -1.2858
 3037SOL     H235311   0.867   4.228   0.911  1.1386 -0.6393  0.4297
 3038SOL    OH235312   5.426   5.026   1.526 -0.3128 -0.2807 -0.0726
 3038SOL     H135313   5.434   4.931   1.532  1.1761 -0.3977 -3.0065
 3038SOL     H235314   5.385   5.041   1.441 -0.8964  1.7000  0.5357
 3039SOL    OH235315   1.585   6.405   0.326 -0.1132  0.1180 -0.3048
 3039SOL     H135316   1.661   6.403   0.267 -0.4007 -0.2483 -0.6606
 3039SOL     H235317   1.530   6.476   0.292  0.4470  0.9185  0.4264
 3040SOL    OH235318   5.457   0.741   8.136 -0.5004  0.1189  0.2123
 3040SOL     H135319   5.430   0.679   8.069  1.2089  1.1563 -1.4702
 3040SOL     H235320   5.382   0.799   8.147 -1.0011 -0.4171 -0.3598
 3041SOL    OH235321   7.237   6.697   7.665 -0.4453 -0.2467 -0.2222
 3041SOL     H135322   7.168   6.687   7.599 -1.4779 -1.2229  0.9736
 3041SOL     H235323   7.191   6.726   7.744  0.8796  1.6860 -0.1186
 3042SOL    OH235324   3.336   0.540   7.820 -0.0187  0.2721  0.2228
 3042SOL     H135325   3.428   0.539   7.796 -0.3571  0.8480 -1.1777
 3042SOL     H235326   3.309   0.448   7.817  0.1222  0.2606 -0.9531
 3043SOL    OH235327   5.298   2.142   2.536  0.3643  0.2092 -0.7014
 3043SOL     H135328   5.366   2.189   2.585 -0.0145  0.3151 -0.2670
 3043SOL     H235329   5.223   2.202   2.536 -0.2868 -0.5793  0.2848
 3044SOL    OH235330   0.755   4.058   1.429 -0.3045 -0.1303 -0.2885
 3044SOL     H135331   0.691   4.044   1.359 -0.6714 -0.4781  0.1155
 3044SOL     H235332   0.816   3.984   1.421  1.3361  1.3430 -2.0607
 3045SOL    OH235333   2.068   7.617   0.174 -0.0170  1.0619 -0.4530
 3045SOL     H135334   2.155   7.657   0.178  0.8555 -0.8572  0.6446
 3045SOL     H235335   2.027   7.638   0.258  0.2867  0.0558 -0.0392
 3046SOL    OH235336   0.487   7.886   7.466 -0.5183  0.5949 -0.0283
 3046SOL     H135337   0.561   7.888   7.405 -0.1537  1.0802  0.4344
 3046SOL     H235338   0.520   7.841   7.543 -0.4540  1.5455  0.5061
 3047SOL    OH235339   0.273   1.136   0.787  0.1481 -0.3486 -0.0250
 3047SOL     H135340   0.183   1.141   0.756  0.4613 -2.4447 -1.4097
 3047SOL     H235341   0.291   1.222   0.825 -2.0526  0.4614 -0.7669
 3048SOL    OH235342   1.732   7.435   1.031  0.1028  0.2264 -0.2048
 3048SOL     H135343   1.825   7.453   1.037 -0.0601  1.1604 -0.3058
 3048SOL     H235344   1.714   7.374   1.102  0.9981 -0.8645 -0.9064
 3049SOL    OH235345   3.166   3.099   1.160 -0.1060  0.2328  0.1591
 3049SOL     H135346   3.219   3.142   1.092  0.1546 -0.9239 -0.3855
 3049SOL     H235347   3.078   3.137   1.149 -0.6839 -1.7331 -2.4986
 3050SOL    OH235348   6.497   1.920   0.584  0.3487 -0.7083 -0.0216
 3050SOL     H135349   6.454   1.843   0.546  0.1605 -0.8562  0.4785
 3050SOL     H235350   6.467   1.921   0.675 -1.1067  1.0203 -0.4950
 3051SOL    OH235351   5.823   1.726   8.105  0.5182 -0.4448  0.3585
 3051SOL     H135352   5.914   1.719   8.134  0.8680 -0.2687 -0.6786
 3051SOL     H235353   5.821   1.808   8.056 -0.3145 -0.2136  0.7795
 3052SOL    OH235354   7.776   3.037   7.663 -0.1768 -0.2150  0.3474
 3052SOL     H135355   7.744   3.115   7.616 -1.0633 -0.5538  0.3719
 3052SOL     H235356   7.745   3.049   7.752 -1.6285 -1.3214  0.0068
 3053SOL    OH235357   7.374   6.282   0.341  0.1638 -0.1512  0.0705
 3053SOL     H135358   7.401   6.232   0.265 -0.9741 -1.6351  0.6319
 3053SOL     H235359   7.388   6.374   0.316 -0.1410 -0.6282 -1.8701
 3054SOL    OH235360   2.679   6.965   0.232  0.0008  0.2980 -0.7375
 3054SOL     H135361   2.745   6.979   0.164  0.1844  0.0402 -0.6129
 3054SOL     H235362   2.694   6.875   0.262  0.5485  0.7287  0.3205
 3055SOL    OH235363   7.319   6.083   6.022  0.1507 -0.3191 -0.0331
 3055SOL     H135364   7.386   6.126   6.075 -1.0379 -1.2215  2.2705
 3055SOL     H235365   7.355   6.082   5.933  2.1506  1.3046  0.7271
 3056SOL    OH235366   6.140   0.792   0.142 -0.4550 -0.0504  0.2035
 3056SOL     H135367   6.151   0.704   0.105  0.4047  0.3955 -0.6152
 3056SOL     H235368   6.196   0.792   0.220  0.3385  0.0990 -0.3633
 3057SOL    OH235369   5.696   7.417   0.467  0.2454  0.1029  0.5011
 3057SOL     H135370   5.775   7.466   0.489  0.0485  0.9896 -0.7057
 3057SOL     H235371   5.626   7.483   0.469 -0.1414 -0.2742 -0.4171
 3058SOL    OH235372   3.402   3.120   1.838 -0.1715  0.2305  0.1119
 3058SOL     H135373   3.378   3.171   1.761  1.8795 -0.9420 -1.3212
 3058SOL     H235374   3.497   3.128   1.844 -0.1081 -1.2366  1.4166
 3059SOL    OH235375   3.656   2.322   1.236  0.3069 -0.1844  0.0046
 3059SOL     H135376   3.565   2.328   1.205  0.0750 -1.0638  0.5197
 3059SOL     H235377   3.651   2.271   1.316  1.8235 -4.3866 -2.4280
 3060SOL    OH235378   0.234   4.220   6.832 -0.2023  0.2168  1.1238
 3060SOL     H135379   0.214   4.170   6.753  0.7837  3.1386 -1.0504
 3060SOL     H235380   0.148   4.246   6.866 -0.6089  2.0107 -1.1078
 3061SOL    OH235381   2.284   6.726   0.255  0.2821  0.6718  0.9442
 3061SOL     H135382   2.269   6.631   0.259  1.8245  0.4220  1.0861
 3061SOL     H235383   2.362   6.740   0.309  0.2119  1.9954  0.7122
 3062SOL    OH235384   1.709   1.449   1.074 -0.2589  0.0835  0.0079
 3062SOL     H135385   1.714   1.382   1.006 -1.1804  0.1037 -0.0883
 3062SOL     H235386   1.658   1.408   1.144  1.8259 -0.4144  1.2530
 3063SOL    OH235387   0.111   4.421   1.438 -0.4381 -0.3229  0.2947
 3063SOL     H135388   0.114   4.465   1.353 -0.3064 -1.2918 -0.2139
 3063SOL     H235389   0.160   4.340   1.424 -0.4553 -0.5056  1.2862
 3064SOL    OH235390   5.203   3.101   0.442  0.5279  0.5435  0.0470
 3064SOL     H135391   5.115   3.095   0.405 -0.0563  0.0694  1.4728
 3064SOL     H235392   5.224   3.194   0.440  0.5443  0.5163 -1.5277
 3065SOL    OH235393   7.613   3.114   6.542 -0.7413  0.3109  0.0110
 3065SOL     H135394   7.637   3.156   6.460 -0.1477 -2.8499 -1.4971
 3065SOL     H235395   7.696   3.083   6.579 -1.2240 -0.2212  0.6759
 3066SOL    OH235396   0.660   5.300   6.922  0.0339 -0.1389  0.0097
 3066SOL     H135397   0.611   5.347   6.854 -0.9373  0.5135  1.1460
 3066SOL     H235398   0.637   5.208   6.908 -0.9538  0.0940  0.0777
 3067SOL    OH235399   6.224   1.036   6.649 -0.0537  0.1224  0.5603
 3067SOL     H135400   6.256   1.068   6.733  0.4594 -0.6474  0.6629
 3067SOL     H235401   6.304   1.014   6.600 -0.3305  1.0224 -0.3061
 3068SOL    OH235402   6.164   5.375   0.109 -0.6081 -0.1032 -0.5549
 3068SOL     H135403   6.208   5.300   0.149 -0.0536  0.3492 -0.3030
 3068SOL     H235404   6.088   5.338   0.065 -0.8032 -0.7038  0.2813
 3069SOL    OH235405   5.927   1.841   1.109 -0.5408 -0.5218  0.9066
 3069SOL     H135406   6.014   1.827   1.148 -1.9939 -2.4228  3.6413
 3069SOL     H235407   5.928   1.788   1.029  0.5273 -1.2593  1.3888
 3070SOL    OH235408   7.928   0.793   7.778  0.2894  0.1182 -0.9924
 3070SOL     H135409   8.012   0.812   7.736  0.5175 -0.7699 -0.9606
 3070SOL     H235410   7.942   0.812   7.871  1.5127 -3.1886 -0.4238
 3071SOL    OH235411   7.691   3.242   0.358  0.3674  0.2253 -0.0025
 3071SOL     H135412   7.646   3.264   0.440  2.9796  0.4259  1.4183
 3071SOL     H235413   7.720   3.151   0.370  0.2647  0.0589 -0.9540
 3072SOL    OH235414   0.776   2.219   0.179 -0.2135 -0.5058 -0.3819
 3072SOL     H135415   0.820   2.135   0.189  0.1145 -0.2509  0.3605
 3072SOL     H235416   0.842   2.275   0.138 -0.8533 -0.9546 -2.0801
 3073SOL    OH235417   4.528   5.427   7.805 -0.1402  0.5102 -0.8945
 3073SOL     H135418   4.576   5.423   7.722 -0.0810  1.6195 -0.9196
 3073SOL     H235419   4.575   5.367   7.863  1.1302  1.3884 -1.0037
 3074SOL    OH235420   0.356   1.499   1.055 -0.2326  0.6422 -0.1258
 3074SOL     H135421   0.330   1.572   1.111  2.4108  1.2965  0.3218
 3074SOL     H235422   0.431   1.460   1.099 -0.2271 -0.9719 -1.4915
 3075SOL    OH235423   5.027   2.115   8.003 -0.1143 -0.2271 -0.0176
 3075SOL     H135424   5.114   2.107   8.042 -0.2849  1.1548  0.6762
 3075SOL     H235425   4.967   2.085   8.071 -0.2701  0.0387 -0.0388
 3076SOL    OH235426   4.708   3.056   1.464 -0.2953 -0.1324  0.5175
 3076SOL     H135427   4.633   3.101   1.425 -1.0012 -0.5313  1.4040
 3076SOL     H235428   4.671   3.005   1.536  0.7868 -0.5593  0.7833
 3077SOL    OH235429   1.432   7.803   7.135  0.1998 -0.1519 -0.1149
 3077SOL     H135430   1.406   7.768   7.220 -0.0678  0.1319 -0.0818
 3077SOL     H235431   1.528   7.808   7.140  0.1332  0.5767  0.4408
 3078SOL    OH235432   0.903   5.865   6.635  0.6611  0.2885 -0.1138
 3078SOL     H135433   0.872   5.949   6.669 -3.1939 -0.7866 -0.7473
 3078SOL     H235434   0.913   5.880   6.541  3.5687  1.0238  0.2774
 3079SOL    OH235435   2.887   4.330   7.592  0.0095 -0.6659 -0.5564
 3079SOL     H135436   2.956   4.266   7.574  1.0008  0.0305  0.7212
 3079SOL     H235437   2.933   4.413   7.600 -0.7840 -0.4210  1.7888
 3080SOL    OH235438   2.479   3.268   8.017  0.0720  0.1814 -0.1920
 3080SOL     H135439   2.550   3.313   8.062  1.8588 -0.2477 -2.4677
 3080SOL     H235440   2.400   3.294   8.064  1.6865  0.8555  2.2510
 3081SOL    OH235441   3.013   3.336   7.589  0.5198 -0.3692 -0.4868
 3081SOL     H135442   3.072   3.308   7.659  1.3810  0.7515 -0.7416
 3081SOL     H235443   2.926   3.326   7.626  0.9516 -0.2743  0.5767
 3082SOL    OH235444   0.179   5.683   8.049  1.2722 -0.2508 -0.3677
 3082SOL     H135445   0.168   5.676   7.954  3.2929  1.2825 -0.7535
 3082SOL     H235446   0.231   5.607   8.074  1.0398 -0.4700 -0.5578
 3083SOL    OH235447   1.121   2.928   7.361  0.1863 -0.0608 -0.3998
 3083SOL     H135448   1.112   2.860   7.294  0.9533 -1.4669  0.8837
 3083SOL     H235449   1.201   2.974   7.337  1.6073 -1.8797  0.6326
 3084SOL    OH235450   0.977   4.642   7.177  0.3422 -0.3455  0.0569
 3084SOL     H135451   0.968   4.632   7.083 -0.4618  0.5761  0.0281
 3084SOL     H235452   1.008   4.732   7.189 -1.6980  0.2879  0.7731
 3085SOL    OH235453   4.984   3.639   5.867 -0.0745  0.3603  0.8255
 3085SOL     H135454   5.018   3.646   5.778 -1.2603 -0.2814  0.2994
 3085SOL     H235455   5.010   3.720   5.910  0.1690  0.8484 -0.2337
 3086SOL    OH235456   7.816   3.916   0.586  0.0140 -0.9042 -0.7559
 3086SOL     H135457   7.729   3.939   0.618 -0.6706 -4.5904  0.2687
 3086SOL     H235458   7.808   3.826   0.554  3.5491 -1.6111  0.0169
 3087SOL    OH235459   5.860   5.203   1.784 -0.5315 -0.0363  0.1985
 3087SOL     H135460   5.894   5.193   1.873  0.2171  0.7327  0.0050
 3087SOL     H235461   5.856   5.298   1.770 -0.4664 -0.1572 -0.6547
 3088SOL    OH235462   2.140   6.867   0.425  0.1774  0.0164 -0.0956
 3088SOL     H135463   2.201   6.822   0.367  0.4603  0.2933 -0.0126
 3088SOL     H235464   2.106   6.798   0.482 -0.8600 -0.4427 -1.2431
 3089SOL    OH235465   3.785   7.123   7.247 -0.7526 -0.0953 -0.3720
 3089SOL     H135466   3.833   7.041   7.235  0.6158  0.8733 -1.6849
 3089SOL     H235467   3.741   7.137   7.163 -2.1595 -0.2091  0.3312
 3090SOL    OH235468   2.604   6.983   0.570 -0.8261  0.0670 -0.1837
 3090SOL     H135469   2.698   6.983   0.551 -0.9240 -0.5652 -0.6620
 3090SOL     H235470   2.599   7.009   0.662 -0.1914  0.2164 -0.1852
 3091SOL    OH235471   3.100   7.661   7.802 -0.7027  0.2690  0.2682
 3091SOL     H135472   3.130   7.712   7.727 -0.3397 -2.0753 -1.2300
 3091SOL     H235473   3.007   7.684   7.812 -1.0713 -0.2998 -1.6804
 3092SOL    OH235474   0.570   5.131   0.395  0.1865  0.9332  0.0920
 3092SOL     H135475   0.608   5.194   0.333  1.4068  1.8638  1.7452
 3092SOL     H235476   0.639   5.118   0.461  0.2688 -2.7533 -0.6176
 3093SOL    OH235477   0.757   0.230   0.634 -0.5193 -0.4441 -0.0264
 3093SOL     H135478   0.805   0.273   0.563 -1.8715  1.0062 -0.0898
 3093SOL     H235479   0.821   0.221   0.704  0.0750  0.6953 -0.4119
 3094SOL    OH235480   3.161   7.772   6.503  0.5273  0.1723  0.4918
 3094SOL     H135481   3.086   7.797   6.557 -0.3558 -0.0049 -0.6262
 3094SOL     H235482   3.237   7.807   6.550  0.0809 -2.5337  3.3841
 3095SOL    OH235483   3.579   6.828   6.868 -0.2717 -0.0962 -0.8671
 3095SOL     H135484   3.485   6.843   6.867  0.0713  2.3716 -0.8912
 3095SOL     H235485   3.594   6.760   6.802 -1.9908 -0.3231 -1.0371
 3096SOL    OH235486   2.007   6.757   6.253 -0.2535  0.2116  0.3038
 3096SOL     H135487   2.078   6.707   6.294 -0.0418  0.5139  0.3049
 3096SOL     H235488   1.933   6.695   6.249  0.7700 -0.9414 -2.0369
 3097SOL    OH235489   1.074   3.302   1.630  0.1436  0.2105  0.2839
 3097SOL     H135490   1.160   3.333   1.602 -0.1861 -0.1296 -1.2025
 3097SOL     H235491   1.063   3.218   1.584 -0.7585  0.0089  0.8565
 3098SOL    OH235492   6.711   4.108   2.553 -0.0696 -1.0244  0.8221
 3098SOL     H135493   6.754   4.086   2.636  1.4338  0.1307  0.3700
 3098SOL     H235494   6.712   4.026   2.503  1.5158 -1.0590  0.8828
 3099SOL    OH235495   4.195   0.875   6.715  0.2506  0.2428 -0.1479
 3099SOL     H135496   4.199   0.954   6.768  0.9091  1.9881 -2.7059
 3099SOL     H235497   4.277   0.875   6.665  1.1322 -3.0706  1.1773
 3100SOL    OH235498   7.203   3.551   6.241  0.4510 -0.3103 -0.4360
 3100SOL     H135499   7.194   3.509   6.155  2.8295  1.2817 -1.5208
 3100SOL     H235500   7.297   3.545   6.260  0.1549  0.6862  1.3776
 3101SOL    OH235501   6.491   5.938   7.964  0.5067 -0.5237  0.3860
 3101SOL     H135502   6.567   5.997   7.963 -1.9655  2.8174 -0.6549
 3101SOL     H235503   6.483   5.908   7.873  2.0155 -2.9225  0.9973
 3102SOL    OH235504   7.372   1.508   8.269 -0.2813  0.2430  0.4663
 3102SOL     H135505   7.360   1.578   8.204  0.7561  0.5689  0.6161
 3102SOL     H235506   7.409   1.435   8.219 -0.7735  0.0122  0.4332
 3103SOL    OH235507   2.258   1.712   1.407  0.0363  0.0154  0.0370
 3103SOL     H135508   2.241   1.806   1.410 -0.2203 -0.0329  0.1395
 3103SOL     H235509   2.352   1.705   1.391  0.2244  0.2812  1.0108
 3104SOL    OH235510   1.374   0.741   0.706  0.0930  0.4281  0.3567
 3104SOL     H135511   1.419   0.669   0.663 -1.2953 -0.8787  1.0612
 3104SOL     H235512   1.383   0.724   0.800 -2.4302 -0.2575  0.5201
 3105SOL    OH235513   1.102   2.613   7.349 -0.0767  0.3865  0.1079
 3105SOL     H135514   1.136   2.539   7.398 -1.7734 -0.6315 -0.2056
 3105SOL     H235515   1.082   2.679   7.415 -0.1516 -0.0832  0.5533
 3106SOL    OH235516   3.240   3.615   7.196  0.4319 -0.3609 -0.0932
 3106SOL     H135517   3.217   3.590   7.285 -0.6203 -0.6885 -0.4472
 3106SOL     H235518   3.324   3.661   7.204  0.5718 -0.8137  0.9971
 3107SOL    OH235519   0.056   0.979   8.149  0.0448 -0.1004 -0.1853
 3107SOL     H135520  -0.021   1.026   8.118  0.1228 -0.9940 -1.8122
 3107SOL     H235521   0.021   0.899   8.189  0.1315 -0.6651 -1.2219
 3108SOL    OH235522   3.726   6.309   8.015  0.3578  0.4132 -0.5710
 3108SOL     H135523   3.790   6.297   8.085 -1.8570 -0.1405  1.4284
 3108SOL     H235524   3.715   6.403   8.009 -1.7909  0.4204  2.1357
 3109SOL    OH235525   7.094   1.507   8.285 -0.7805  0.1943 -0.4158
 3109SOL     H135526   7.082   1.573   8.217 -0.5906 -1.5881 -2.2116
 3109SOL     H235527   7.184   1.476   8.274 -1.0293 -0.7233  0.0792
 3110SOL    OH235528   6.563   2.240   7.054  0.1492 -0.2411 -0.0262
 3110SOL     H135529   6.577   2.215   7.145 -1.0916  0.1390  0.2855
 3110SOL     H235530   6.630   2.192   7.005 -0.9423 -2.6873  0.7829
 3111SOL    OH235531   7.687   0.834   1.197 -0.1245 -0.6011  0.2837
 3111SOL     H135532   7.757   0.775   1.225  1.4294  0.4658 -1.2103
 3111SOL     H235533   7.680   0.819   1.103 -2.7135 -1.5127  0.6069
 3112SOL    OH235534   0.945   7.187   0.083 -0.0785  0.4982 -0.0809
 3112SOL     H135535   0.937   7.093   0.067 -1.1982  0.1659  2.1732
 3112SOL     H235536   0.938   7.227  -0.004 -0.8952 -1.4191 -0.9251
 3113SOL    OH235537   0.622   4.017   1.144  0.0704  0.0769  0.5596
 3113SOL     H135538   0.606   3.999   1.052  2.1828 -0.8049  0.3418
 3113SOL     H235539   0.546   3.981   1.190 -1.4721  1.4093 -0.8964
 3114SOL    OH235540   3.881   6.448   7.543  0.2900  0.1167  0.4079
 3114SOL     H135541   3.960   6.394   7.533 -0.5287 -0.5764 -3.0509
 3114SOL     H235542   3.830   6.404   7.610  2.4377  0.1334  2.1380
 3115SOL    OH235543   3.991   3.333   0.098 -0.1049  0.2696  0.4751
 3115SOL     H135544   4.049   3.338   0.022 -0.7955  0.1636 -0.0649
 3115SOL     H235545   4.010   3.248   0.136  0.8405  0.6645  0.9108
 3116SOL    OH235546   0.128   4.526   0.651  0.0766  0.2887 -0.0075
 3116SOL     H135547   0.052   4.505   0.704  1.0995  1.8779  2.1894
 3116SOL     H235548   0.172   4.442   0.636 -0.2245 -0.1900  1.7177
 3117SOL    OH235549   6.033   4.255   2.678 -0.0215  0.2614  0.2631
 3117SOL     H135550   6.037   4.346   2.709  0.0858  0.0729  0.8093
 3117SOL     H235551   6.000   4.206   2.753 -0.5733 -0.0775 -0.2003
 3118SOL    OH235552   2.664   1.275   1.149  0.3886 -0.0386 -0.0463
 3118SOL     H135553   2.720   1.332   1.096 -0.5199  1.4857  0.5691
 3118SOL     H235554   2.585   1.264   1.097  0.6737 -0.9557 -0.2782
 3119SOL    OH235555   4.312   0.522   7.706  0.1879  0.0549 -0.2271
 3119SOL     H135556   4.303   0.609   7.744  1.0006 -0.1208  0.3709
 3119SOL     H235557   4.226   0.503   7.668 -0.1633  0.8681  0.1658
 3120SOL    OH235558   3.356   4.330   1.674 -0.4006 -0.1122  0.3702
 3120SOL     H135559   3.406   4.292   1.602 -0.9362 -0.1042 -0.0047
 3120SOL     H235560   3.418   4.333   1.747  0.0628 -0.3670 -0.0114
 3121SOL    OH235561   4.594   0.486   7.676 -0.0287  0.4603  0.6567
 3121SOL     H135562   4.653   0.458   7.746  0.7810  2.0533  0.6439
 3121SOL     H235563   4.511   0.504   7.719  0.2134  0.5792  1.0733
 3122SOL    OH235564   4.419   4.916   0.428  0.1901  0.3582 -0.3191
 3122SOL     H135565   4.484   4.851   0.454 -0.0783  0.7559  1.4206
 3122SOL     H235566   4.456   4.959   0.351  0.8012 -1.1831 -0.9079
 3123SOL    OH235567   6.487   3.468   6.648  0.4430 -0.3800  0.0511
 3123SOL     H135568   6.425   3.437   6.583  1.0289  0.3055 -0.8410
 3123SOL     H235569   6.444   3.452   6.732 -0.5907 -0.6489 -0.5294
 3124SOL    OH235570   4.926   6.501   7.241 -0.1637 -0.9933  0.3030
 3124SOL     H135571   4.926   6.578   7.299 -0.7344  0.6505 -1.8214
 3124SOL     H235572   4.834   6.489   7.217  0.0611 -1.6918 -0.2232
 3125SOL    OH235573   2.192   1.089   7.232 -0.2982  0.2588  0.2706
 3125SOL     H135574   2.166   1.057   7.145  0.1410  0.9011 -0.1057
 3125SOL     H235575   2.276   1.045   7.248 -0.3850  0.1324  0.3707
 3126SOL    OH235576   7.474   3.755   7.639  0.3340 -0.9276  0.4568
 3126SOL     H135577   7.399   3.812   7.623 -0.1497 -1.9232 -0.9702
 3126SOL     H235578   7.548   3.802   7.601  0.1892 -0.5780  0.6054
 3127SOL    OH235579   5.513   0.253   2.566  0.3675  0.0939 -0.6159
 3127SOL     H135580   5.424   0.278   2.545 -0.2418 -2.7434 -1.7368
 3127SOL     H235581   5.510   0.225   2.658 -0.4009 -1.9219 -1.2214
 3128SOL    OH235582   7.829   2.127   0.539 -0.2284  0.4619  0.3503
 3128SOL     H135583   7.777   2.066   0.592  0.5707  1.0927  1.8685
 3128SOL     H235584   7.919   2.112   0.565  0.2091  0.6642 -0.9780
 3129SOL    OH235585   1.193   1.014   6.961 -0.4465 -0.3603  0.0246
 3129SOL     H135586   1.266   0.953   6.954  0.5501  0.7303  0.7793
 3129SOL     H235587   1.128   0.969   7.015 -0.8308 -1.7962 -1.6017
 3130SOL    OH235588   6.469   0.112   0.483 -0.0862 -0.1497 -0.0093
 3130SOL     H135589   6.513   0.174   0.541 -2.8928  0.3059  1.7400
 3130SOL     H235590   6.405   0.165   0.435 -1.8709 -1.4839  0.8177
 3131SOL    OH235591   3.544   5.745   0.993  0.3042 -0.0939 -0.1077
 3131SOL     H135592   3.501   5.760   1.077 -1.9908  2.0395 -1.6106
 3131SOL     H235593   3.575   5.831   0.965 -1.2190 -0.2972 -2.6171
 3132SOL    OH235594   2.566   7.098   0.014 -0.0627  0.2449 -0.1870
 3132SOL     H135595   2.517   7.043  -0.046  3.5628 -2.6033 -0.7248
 3132SOL     H235596   2.534   7.073   0.101 -2.0929  1.1059 -0.6524
 3133SOL    OH235597   1.517   2.783   0.279  0.2472  0.5050  0.1217
 3133SOL     H135598   1.534   2.708   0.336  0.0644 -1.2956 -2.1413
 3133SOL     H235599   1.553   2.758   0.194 -0.5811  2.6344 -0.8897
 3134SOL    OH235600   5.026   0.496   6.934 -0.8268 -0.4984  0.4710
 3134SOL     H135601   4.954   0.557   6.921  0.4775  1.0188  0.1407
 3134SOL     H235602   5.037   0.454   6.848 -0.6853 -0.0192  0.2533
 3135SOL    OH235603   3.613   2.889   8.117  0.3829 -0.0726  0.3909
 3135SOL     H135604   3.641   2.927   8.200  0.7073 -0.2103  0.3460
 3135SOL     H235605   3.686   2.834   8.090  0.0119 -0.5362  0.3329
 3136SOL    OH235606   7.527   2.561   0.781 -0.4030  0.3888  0.2850
 3136SOL     H135607   7.523   2.485   0.722 -0.6939  0.7493 -0.1671
 3136SOL     H235608   7.577   2.626   0.731 -1.5728  1.0784 -0.0041
 3137SOL    OH235609   6.891   3.834   0.371 -0.2415  0.1759 -0.0034
 3137SOL     H135610   6.828   3.797   0.309  0.3422 -1.1220  0.1576
 3137SOL     H235611   6.872   3.788   0.453  0.5987  0.1239  0.1666
 3138SOL    OH235612   2.460   6.913   6.228 -0.1022 -0.4107 -0.3803
 3138SOL     H135613   2.404   6.896   6.304  1.5457  0.3020  1.0152
 3138SOL     H235614   2.508   6.832   6.214  1.2290  0.1596  0.7522
 3139SOL    OH235615   1.949   7.916   0.006  0.3532  0.1388  0.1999
 3139SOL     H135616   1.949   7.925   0.102  0.3387  2.9053 -0.0014
 3139SOL     H235617   1.860   7.889  -0.016 -0.0786  0.9730  0.8792
 3140SOL    OH235618   0.121   4.167   7.582 -0.2072 -0.3409  0.2248
 3140SOL     H135619   0.114   4.078   7.547 -0.3592  0.7243 -2.5416
 3140SOL     H235620   0.033   4.204   7.570 -0.2476  0.0698  1.7286
 3141SOL    OH235621   6.581   7.009   7.294  0.5118 -0.3684 -0.4583
 3141SOL     H135622   6.565   7.097   7.329  0.0942 -1.2465  1.6076
 3141SOL     H235623   6.497   6.983   7.256  0.4557 -0.1437 -0.4913
 3142SOL    OH235624   3.128   4.253   1.139 -0.2464 -0.2122 -0.2146
 3142SOL     H135625   3.043   4.277   1.175 -0.3996  0.9961 -1.3248
 3142SOL     H235626   3.110   4.181   1.079 -0.0579 -1.9045  1.7322
 3143SOL    OH235627   0.735   3.762   8.146  0.2967 -0.2906  0.2751
 3143SOL     H135628   0.647   3.747   8.181 -0.4884  0.3890 -1.3774
 3143SOL     H235629   0.783   3.801   8.220 -0.5770 -1.2768  1.3925
 3144SOL    OH235630   7.597   0.331   0.513 -0.9793 -0.0294  0.0624
 3144SOL     H135631   7.541   0.353   0.439 -0.6468 -0.9314 -0.4654
 3144SOL     H235632   7.685   0.330   0.477 -0.5258  2.0481  1.0335
 3145SOL    OH235633   2.809   0.416   0.287  0.0660 -0.3055 -0.2095
 3145SOL     H135634   2.731   0.373   0.252 -0.1050 -0.7575  0.7094
 3145SOL     H235635   2.850   0.349   0.341  0.7575  0.1344 -0.1866
 3146SOL    OH235636   3.083   3.853   2.252  0.4158 -0.5242 -0.1379
 3146SOL     H135637   3.091   3.770   2.298  0.8800 -1.9169 -2.6555
 3146SOL     H235638   3.022   3.904   2.305  0.5785 -2.2340  1.7496
 3147SOL    OH235639   7.803   2.302   0.273 -0.3960 -0.6963 -0.4956
 3147SOL     H135640   7.828   2.238   0.340 -2.1446 -0.2435  0.6355
 3147SOL     H235641   7.723   2.265   0.234  1.0470 -1.3351 -2.8943
 3148SOL    OH235642   0.339   5.670   0.906 -0.5141 -0.2760  0.2572
 3148SOL     H135643   0.328   5.755   0.864  1.3741 -1.0363 -1.8891
 3148SOL     H235644   0.257   5.624   0.888 -0.4998  0.1317 -0.8688
 3149SOL    OH235645   0.594   5.963   7.739  0.2723  0.4864  1.2876
 3149SOL     H135646   0.504   5.943   7.762  0.1866 -0.4473  0.1472
 3149SOL     H235647   0.590   6.052   7.703 -0.6801 -0.6070 -1.4578
 3150SOL    OH235648   6.636   5.643   0.221  0.5493  0.0523  0.1822
 3150SOL     H135649   6.589   5.709   0.272  0.2141 -0.5935  0.7058
 3150SOL     H235650   6.728   5.669   0.228  0.2724  1.4750 -1.0655
 3151SOL    OH235651   1.571   2.263   7.162 -0.3479  0.1901 -0.4676
 3151SOL     H135652   1.604   2.344   7.199 -0.2354 -1.0429  2.2163
 3151SOL     H235653   1.649   2.219   7.128 -0.0619  0.0743  0.3303
 3152SOL    OH235654   1.873   2.259   7.858 -0.6342  0.3722 -0.2635
 3152SOL     H135655   1.967   2.279   7.865 -0.8062  0.5988  1.6068
 3152SOL     H235656   1.854   2.208   7.937 -2.5260  2.1330  0.4517
 3153SOL    OH235657   7.182   0.076   0.932 -0.1217  0.8198 -0.0243
 3153SOL     H135658   7.201   0.032   1.014  1.0554  0.0669 -0.6933
 3153SOL     H235659   7.214   0.165   0.943 -0.1432  0.7750  0.3907
 3154SOL    OH235660   2.387   5.371   1.101 -0.2279 -0.1517  0.1345
 3154SOL     H135661   2.454   5.398   1.039 -0.4952 -0.1340 -0.1491
 3154SOL     H235662   2.309   5.419   1.074 -0.2655  0.1018  0.6814
 3155SOL    OH235663   7.456   5.048   8.294 -0.3659 -0.2256 -0.5002
 3155SOL     H135664   7.407   4.966   8.298 -1.8663  0.6143 -1.4278
 3155SOL     H235665   7.505   5.043   8.212  1.4224 -1.2055  0.5780
 3156SOL    OH235666   6.761   7.338   6.779 -0.3751  0.0757  0.5985
 3156SOL     H135667   6.832   7.275   6.777  1.5495  2.2155 -1.2958
 3156SOL     H235668   6.683   7.286   6.796  1.5106 -2.4257  1.8405
 3157SOL    OH235669   3.482   6.781   0.253 -0.1057  0.0322 -1.2579
 3157SOL     H135670   3.489   6.872   0.224  0.8866  0.1160 -0.7531
 3157SOL     H235671   3.402   6.749   0.210 -0.6012  1.2077 -1.2436
 3158SOL    OH235672   0.815   2.812   0.629  0.4102  0.1047  0.3309
 3158SOL     H135673   0.741   2.753   0.612  0.9616 -0.2740 -0.8184
 3158SOL     H235674   0.790   2.894   0.587  0.2478  0.2658  0.7380
 3159SOL    OH235675   5.829   3.410   0.479 -0.9425 -0.3010 -0.1313
 3159SOL     H135676   5.866   3.417   0.567  0.6271  0.8205 -0.8412
 3159SOL     H235677   5.770   3.485   0.472  1.3079  1.4591 -1.0744
 3160SOL    OH235678   4.751   6.959   6.726  0.1688  0.3114 -0.3702
 3160SOL     H135679   4.828   6.983   6.777  1.5205 -0.3439 -2.0686
 3160SOL     H235680   4.743   7.028   6.660 -0.3349  0.0377 -0.5994
 3161SOL    OH235681   1.760   1.555   8.138 -0.5797 -0.3542 -0.3378
 3161SOL     H135682   1.814   1.630   8.165  0.4544 -0.3805 -2.2804
 3161SOL     H235683   1.675   1.571   8.180  0.4315  0.5014  1.4804
 3162SOL    OH235684   0.868   4.149   0.179 -1.2408  0.0920  0.7602
 3162SOL     H135685   0.854   4.198   0.097 -1.2435  1.3546  1.4966
 3162SOL     H235686   0.841   4.060   0.158  0.5376 -0.0288 -1.1591
 3163SOL    OH235687   3.159   3.632   7.481  0.4561  0.1382 -0.0682
 3163SOL     H135688   3.138   3.693   7.552  2.3169  0.3385  0.3544
 3163SOL     H235689   3.138   3.546   7.515  2.1203  0.1552  1.0862
 3164SOL    OH235690   5.553   7.652   8.105  0.7106 -0.3026 -0.2802
 3164SOL     H135691   5.618   7.682   8.167  1.1368  1.7109 -1.6482
 3164SOL     H235692   5.491   7.724   8.097  0.0579 -0.9490 -1.3546
 3165SOL    OH235693   1.726   7.568   7.878 -0.6488  0.2023 -0.0936
 3165SOL     H135694   1.741   7.636   7.944 -0.9152  1.3172 -1.1740
 3165SOL     H235695   1.661   7.511   7.917  1.5145 -0.9783  1.9399
 3166SOL    OH235696   5.704   5.008   0.941  0.2114 -0.7716 -0.3925
 3166SOL     H135697   5.700   5.020   1.036 -1.1970  1.5265 -0.6933
 3166SOL     H235698   5.779   5.059   0.913 -0.6912  0.3979 -0.7355
 3167SOL    OH235699   3.460   7.593   6.758  0.5303 -0.0304  0.0909
 3167SOL     H135700   3.494   7.678   6.786 -0.3982 -0.0272  1.2792
 3167SOL     H235701   3.367   7.597   6.780  0.6630 -1.6919  1.0182
 3168SOL    OH235702   2.104   4.536   7.749  0.1998  0.3945  0.3247
 3168SOL     H135703   2.083   4.556   7.841 -1.7116  2.0022 -0.4296
 3168SOL     H235704   2.033   4.478   7.721  1.4974 -1.1795  0.2081
 3169SOL    OH235705   1.328   5.549   7.715  0.1867 -0.0415 -0.3619
 3169SOL     H135706   1.388   5.581   7.648  0.8067 -0.5841 -0.0779
 3169SOL     H235707   1.338   5.454   7.713 -0.6838 -0.1397 -0.3188
 3170SOL    OH235708   6.608   2.847   0.553 -0.0402  0.3402  0.2140
 3170SOL     H135709   6.612   2.757   0.586 -2.0804 -0.1336 -0.7412
 3170SOL     H235710   6.699   2.871   0.535  0.6146 -1.1506  1.4610
 3171SOL    OH235711   2.202   0.999   6.387  0.1885  0.0824 -0.1875
 3171SOL     H135712   2.231   0.990   6.296 -0.2484 -1.4002 -0.1941
 3171SOL     H235713   2.255   1.070   6.422  0.9139  0.1428 -1.3799
 3172SOL    OH235714   5.366   7.582   1.404  0.6374  0.2925  0.5855
 3172SOL     H135715   5.298   7.515   1.415  2.6870 -1.8867  0.4678
 3172SOL     H235716   5.332   7.639   1.335 -1.4781 -0.2008  1.1708
 3173SOL    OH235717   3.753   2.179   5.671  0.2026  0.2045  0.5936
 3173SOL     H135718   3.824   2.203   5.612  0.2262  0.0959  0.5781
 3173SOL     H235719   3.674   2.189   5.618  0.3266 -1.2657  0.1169
 3174SOL    OH235720   5.806   6.814   6.831  0.3242 -0.5381  0.6222
 3174SOL     H135721   5.853   6.741   6.791  0.2440 -0.0785 -0.3185
 3174SOL     H235722   5.714   6.788   6.828  0.1042  0.3463 -1.3466
 3175SOL    OH235723   5.770   4.902   7.131 -0.0282 -0.0452 -0.0341
 3175SOL     H135724   5.711   4.867   7.064 -1.3595  0.7523  0.7064
 3175SOL     H235725   5.821   4.827   7.160 -2.1160 -1.1866  0.7789
 3176SOL    OH235726   7.634   0.290   1.672 -0.4269  0.1270 -0.2062
 3176SOL     H135727   7.723   0.269   1.702  0.1959  1.8877 -0.7621
 3176SOL     H235728   7.641   0.296   1.577 -1.4275 -1.0027 -0.3579
 3177SOL    OH235729   7.719   7.503   8.110  0.5067  0.1769 -0.0633
 3177SOL     H135730   7.797   7.472   8.154  0.4989  1.0572  0.5967
 3177SOL     H235731   7.675   7.424   8.079  0.7167 -0.4323  1.1687
 3178SOL    OH235732   5.494   4.680   2.126  0.3596  0.0835 -0.3146
 3178SOL     H135733   5.571   4.635   2.159 -0.5951 -0.9472  0.5654
 3178SOL     H235734   5.489   4.655   2.033  0.2979 -0.9781 -0.0282
 3179SOL    OH235735   4.262   2.164   6.500  0.1951  0.1732  0.0420
 3179SOL     H135736   4.343   2.210   6.524  0.8965 -0.3034 -1.3900
 3179SOL     H235737   4.287   2.072   6.495 -0.8628 -0.1982  1.3725
 3180SOL    OH235738   1.673   3.926   6.628 -0.3466  0.0501 -0.1920
 3180SOL     H135739   1.728   3.993   6.587 -0.0035  0.5284  1.0374
 3180SOL     H235740   1.590   3.971   6.646 -0.5706 -0.2168 -0.5616
 3181SOL    OH235741   0.480   6.742   5.989  0.0926 -1.2737  0.4036
 3181SOL     H135742   0.427   6.732   6.068 -1.4135 -0.2015 -0.4667
 3181SOL     H235743   0.499   6.835   5.984 -0.3949 -1.2269 -0.8637
 3182SOL    OH235744   7.431   2.553   6.791  0.0950  0.5893 -0.4644
 3182SOL     H135745   7.425   2.577   6.699  0.9700  0.3379 -0.5923
 3182SOL     H235746   7.445   2.458   6.790  0.5268  0.6462 -0.0933
 3183SOL    OH235747   6.950   4.012   0.189  0.0227 -0.1801  0.0927
 3183SOL     H135748   6.940   3.945   0.256  0.0342  0.1549  0.4339
 3183SOL     H235749   6.862   4.046   0.175  0.0414 -0.1550  0.0331
 3184SOL    OH235750   3.316   1.586   7.506 -0.1824 -0.5019  0.0252
 3184SOL     H135751   3.376   1.639   7.454  0.6472 -1.4490 -0.0045
 3184SOL     H235752   3.267   1.534   7.442 -0.8244  0.0490  0.0664
 3185SOL    OH235753   5.460   2.242   1.015 -0.0435  0.2275 -0.0530
 3185SOL     H135754   5.527   2.217   1.079  1.0333  1.6899 -0.5576
 3185SOL     H235755   5.380   2.198   1.044  0.9393 -0.8497  1.0600
 3186SOL    OH235756   0.287   1.300   1.395 -0.5106  0.2266  0.1008
 3186SOL     H135757   0.235   1.260   1.325 -0.6749 -2.7840  1.8607
 3186SOL     H235758   0.370   1.253   1.393  0.3114  1.6534  0.4852
 3187SOL    OH235759   7.633   2.440   7.120 -0.6678 -0.1023 -0.5355
 3187SOL     H135760   7.635   2.485   7.205  0.7217 -0.6743 -0.2593
 3187SOL     H235761   7.616   2.510   7.057  0.3889  0.6533  0.0089
 3188SOL    OH235762   5.358   7.205   7.810  0.1044 -0.2094 -0.5248
 3188SOL     H135763   5.376   7.283   7.863 -0.9287  0.6795 -1.4548
 3188SOL     H235764   5.263   7.203   7.802  0.0604 -2.0792  0.2315
 3189SOL    OH235765   2.521   0.798   0.905  0.7702 -0.1646  0.4423
 3189SOL     H135766   2.504   0.704   0.900 -0.9038  0.1509 -0.3230
 3189SOL     H235767   2.453   0.837   0.849  1.6946  1.4655  0.4296
 3190SOL    OH235768   4.479   6.327   0.438 -0.5293  0.2978 -0.2997
 3190SOL     H135769   4.421   6.395   0.403 -0.7813 -0.0053 -0.4785
 3190SOL     H235770   4.426   6.247   0.434  0.0384 -0.0533 -0.8320
 3191SOL    OH235771   0.738   0.237   1.025 -0.2113  0.0047 -0.2485
 3191SOL     H135772   0.656   0.271   1.062  0.7034  1.5775  0.4047
 3191SOL     H235773   0.794   0.223   1.101  0.5698  0.1531 -0.7952
 3192SOL    OH235774   5.674   5.428   1.082  0.1942  0.3152 -0.2369
 3192SOL     H135775   5.639   5.347   1.045 -0.9703  0.6564  0.0883
 3192SOL     H235776   5.693   5.482   1.006 -4.4068  1.9330 -0.4042
 3193SOL    OH235777   2.730   3.054   6.440 -0.3209  1.2084 -0.2814
 3193SOL     H135778   2.731   2.980   6.501 -0.2569 -0.1845 -1.9355
 3193SOL     H235779   2.655   3.106   6.468 -0.2000  0.6717  1.0899
 3194SOL    OH235780   4.492   4.813   1.412  0.3603 -0.1515 -0.3729
 3194SOL     H135781   4.551   4.753   1.367  1.2381 -1.1639  2.0997
 3194SOL     H235782   4.428   4.757   1.455  1.0125  0.6884  1.7300
 3195SOL    OH235783   7.968   1.391   7.909 -0.8055 -0.3973  1.0515
 3195SOL     H135784   7.903   1.450   7.870  0.0327  0.8741  1.5320
 3195SOL     H235785   7.956   1.308   7.862 -1.2837  0.4673 -0.4047
 3196SOL    OH235786   6.590   4.904   2.328  0.3486  0.3737 -0.0137
 3196SOL     H135787   6.616   4.837   2.265  2.6899  0.4557  0.8196
 3196SOL     H235788   6.596   4.986   2.279 -0.2333  0.2049 -0.3703
 3197SOL    OH235789   7.973   2.343   0.918 -0.2406  0.5720 -0.5200
 3197SOL     H135790   7.896   2.296   0.949 -0.6905  0.1476 -2.2399
 3197SOL     H235791   7.940   2.401   0.849  0.7982  1.1933 -0.5061
 3198SOL    OH235792   5.602   7.093   6.614  0.2503 -0.3536 -0.1368
 3198SOL     H135793   5.692   7.064   6.603  0.5709  0.1317  1.1054
 3198SOL     H235794   5.596   7.173   6.562  0.3120 -0.8098 -0.8502
 3199SOL    OH235795   5.167   5.443   7.859  0.1567 -0.4152  0.2294
 3199SOL     H135796   5.171   5.434   7.764 -2.4075 -0.9553  0.1440
 3199SOL     H235797   5.258   5.435   7.888  0.7993 -1.6831 -2.0513
 3200SOL    OH235798   1.657   0.142   1.368 -0.1836 -0.0668 -0.0182
 3200SOL     H135799   1.702   0.091   1.435 -0.9876 -1.5385 -0.5574
 3200SOL     H235800   1.715   0.139   1.292 -0.8966 -1.4609 -0.5239
 3201SOL    OH235801   6.470   3.264   2.329 -0.2975 -0.0101 -0.0825
 3201SOL     H135802   6.410   3.274   2.402  1.7435  0.1911  1.6244
 3201SOL     H235803   6.551   3.233   2.369  0.5914 -0.7413 -2.3818
 3202SOL    OH235804   4.720   4.115   8.089  0.0662 -0.6219 -0.3230
 3202SOL     H135805   4.712   4.093   7.996  0.2801  2.1874 -1.0511
 3202SOL     H235806   4.784   4.187   8.091 -0.1886 -0.4294  1.9628
 3203SOL    OH235807   7.685   0.175   6.351  0.3660  0.4905  0.6648
 3203SOL     H135808   7.684   0.211   6.440  1.8070  1.6511  0.2334
 3203SOL     H235809   7.691   0.251   6.294  1.2058 -0.3236 -0.3558
 3204SOL    OH235810   6.002   6.596   1.515  0.1117 -0.4929  0.4521
 3204SOL     H135811   6.017   6.686   1.544  0.7090 -1.6034  3.8531
 3204SOL     H235812   6.086   6.567   1.480  0.4327 -0.3099  1.0667
 3205SOL    OH235813   3.591   6.229   0.964  0.5222  0.0883 -0.1678
 3205SOL     H135814   3.516   6.286   0.944  0.0639 -0.1184  0.9264
 3205SOL     H235815   3.666   6.288   0.968  0.8894 -0.0205 -3.7878
 3206SOL    OH235816   4.211   3.236   6.500 -0.0803  0.4149  0.7793
 3206SOL     H135817   4.143   3.211   6.437 -0.3067  1.7463  0.4759
 3206SOL     H235818   4.178   3.317   6.540  1.2940  1.0625  0.6470
 3207SOL    OH235819   2.004   4.135   7.013 -0.7283 -0.8686 -0.4614
 3207SOL     H135820   2.099   4.131   7.005 -0.6723 -0.1517 -0.2239
 3207SOL     H235821   1.980   4.054   7.057 -0.3576 -1.6652 -1.6971
 3208SOL    OH235822   3.712   6.207   5.465  0.2710  0.3512  0.0522
 3208SOL     H135823   3.671   6.213   5.379 -0.0930  1.5546  0.2923
 3208SOL     H235824   3.714   6.113   5.484  1.8379 -0.0514 -1.9469
 3209SOL    OH235825   1.046   1.970   1.882  0.0956  0.4971  0.4998
 3209SOL     H135826   1.102   1.989   1.957 -1.6074 -1.1941  2.2926
 3209SOL     H235827   0.968   1.930   1.921 -0.0647 -2.0902 -2.3149
 3210SOL    OH235828   1.383   0.910   7.294 -0.0590 -0.0521  0.5150
 3210SOL     H135829   1.350   0.969   7.362 -0.8062  2.1884 -1.6946
 3210SOL     H235830   1.307   0.858   7.268  0.1234 -0.6101  1.1024
 3211SOL    OH235831   1.005   0.111   6.262  0.0200 -0.4471 -0.5296
 3211SOL     H135832   0.934   0.048   6.268 -1.8708  1.6295 -0.4443
 3211SOL     H235833   0.989   0.158   6.180 -0.0513  1.5853  0.6180
 3212SOL    OH235834   6.690   6.598   7.558 -0.4534 -0.3617  0.3280
 3212SOL     H135835   6.743   6.557   7.490  0.7579 -0.7459  1.4685
 3212SOL     H235836   6.675   6.688   7.527  0.4242 -0.4095 -0.2471
 3213SOL    OH235837   4.654   5.000   7.646 -0.3559  0.2667  0.6135
 3213SOL     H135838   4.610   5.073   7.603  0.9070 -0.0331 -1.2639
 3213SOL     H235839   4.584   4.951   7.690 -2.1314 -0.8947 -3.3029
 3214SOL    OH235840   3.135   3.306   7.835 -0.7237 -0.7186 -0.1773
 3214SOL     H135841   3.165   3.227   7.880 -1.9777 -0.6449  0.8134
 3214SOL     H235842   3.209   3.367   7.841 -0.1761 -1.3980  0.0837
 3215SOL    OH235843   0.815   0.175   6.992  0.1503  0.2262 -0.1671
 3215SOL     H135844   0.720   0.173   6.980  0.0668 -0.9802  0.6098
 3215SOL     H235845   0.850   0.195   6.904 -0.8068  0.5594 -0.4762
 3216SOL    OH235846   3.617   7.077   1.617 -0.2450  0.2142 -1.1636
 3216SOL     H135847   3.684   7.037   1.674 -0.4817  1.6414  0.1415
 3216SOL     H235848   3.587   7.004   1.562  0.4682 -1.0598  0.0769
 3217SOL    OH235849   4.672   7.455   6.992  0.3555 -0.3176 -0.5862
 3217SOL     H135850   4.699   7.460   6.901  1.0056 -0.5810 -0.4139
 3217SOL     H235851   4.664   7.546   7.020 -0.2605 -0.2386 -1.0246
 3218SOL    OH235852   7.495   7.884   0.644 -0.7030  0.1910 -0.5178
 3218SOL     H135853   7.470   7.890   0.552 -0.5588  1.5680 -0.4764
 3218SOL     H235854   7.412   7.865   0.690 -0.8457 -0.0649 -0.8790
 3219SOL    OH235855   4.288   1.008   7.963  0.7352  0.4956  0.0248
 3219SOL     H135856   4.292   0.987   8.056 -1.7624  2.3537  0.6177
 3219SOL     H235857   4.247   1.095   7.960  0.5775  0.3721 -2.8103
 3220SOL    OH235858   7.265   2.196   0.433  0.2631  0.6491 -0.5669
 3220SOL     H135859   7.314   2.272   0.404 -0.3229  1.1914 -0.1428
 3220SOL     H235860   7.328   2.124   0.431  0.5777  0.9594 -1.8433
 3221SOL    OH235861   1.285   2.419   0.444 -0.0685  0.0914  0.2183
 3221SOL     H135862   1.341   2.343   0.429 -2.4332 -1.5393 -0.7518
 3221SOL     H235863   1.237   2.399   0.524 -0.5806  0.6273  0.0510
 3222SOL    OH235864   7.633   0.449   6.794 -1.3187 -0.2592 -0.3010
 3222SOL     H135865   7.542   0.475   6.803 -1.4244 -0.6559 -0.2287
 3222SOL     H235866   7.683   0.525   6.824 -1.6155  0.2051 -0.9728
 3223SOL    OH235867   6.264   1.491   1.569  0.0149  0.3029  0.6843
 3223SOL     H135868   6.260   1.441   1.651 -0.5950 -0.3690  0.2480
 3223SOL     H235869   6.173   1.508   1.548  0.0356 -1.7463 -1.2100
 3224SOL    OH235870   4.796   5.027   7.201 -0.4271 -0.6391 -0.1592
 3224SOL     H135871   4.757   4.996   7.283 -2.0206  0.7724 -0.3499
 3224SOL     H235872   4.722   5.061   7.151  1.1219  2.9226 -0.1830
 3225SOL    OH235873   2.942   1.528   5.451 -0.2145  0.1437 -0.3679
 3225SOL     H135874   2.918   1.609   5.405 -1.0265 -0.5824 -1.2528
 3225SOL     H235875   2.924   1.547   5.543 -0.4993  0.9422 -0.5769
 3226SOL    OH235876   6.866   5.249   7.239  0.1110  0.0680 -0.1117
 3226SOL     H135877   6.856   5.157   7.263  0.7545  0.1483  0.4820
 3226SOL     H235878   6.803   5.296   7.294  0.8673  0.1429  0.7005
 3227SOL    OH235879   0.827   7.261   0.582 -0.3753  0.1168 -0.4226
 3227SOL     H135880   0.822   7.236   0.490 -0.6903 -0.7471 -0.1834
 3227SOL     H235881   0.787   7.187   0.629 -0.5338  0.7007  0.3779
 3228SOL    OH235882   3.351   3.110   0.950  0.3251 -0.0760 -0.0394
 3228SOL     H135883   3.401   3.142   0.875  0.7151 -2.8090 -1.0235
 3228SOL     H235884   3.297   3.040   0.914 -1.3280  0.2375  1.7754
 3229SOL    OH235885   1.396   0.050   6.190 -0.1359 -0.1252 -0.0844
 3229SOL     H135886   1.461   0.077   6.256 -1.4851  2.0148  0.4056
 3229SOL     H235887   1.353  -0.027   6.229  2.4693 -1.9744 -0.6886
 3230SOL    OH235888   7.550  -0.001   0.320 -0.2559  0.4496  0.0498
 3230SOL     H135889   7.485   0.068   0.334 -0.7718  0.2343 -1.2155
 3230SOL     H235890   7.506  -0.064   0.263  1.5194  0.9789 -1.9739
 3231SOL    OH235891   2.423   7.848   7.095  0.0181 -0.1794 -0.0056
 3231SOL     H135892   2.501   7.793   7.093  0.2704  0.1806 -1.6871
 3231SOL     H235893   2.401   7.861   7.002 -1.7983  0.0645  0.4403
 3232SOL    OH235894   5.832   0.637   0.861 -0.0104  0.2765  0.0507
 3232SOL     H135895   5.786   0.716   0.832  1.4326  1.2723  0.4092
 3232SOL     H235896   5.765   0.585   0.906 -0.9030  1.4295  0.0782
 3233SOL    OH235897   5.176   4.673   1.325 -0.0483 -0.4069  0.1892
 3233SOL     H135898   5.154   4.593   1.278 -1.4235  0.4503 -0.6493
 3233SOL     H235899   5.240   4.717   1.270 -0.0470 -0.4404  0.1644
 3234SOL    OH235900   3.897   2.259   1.537  0.4591 -0.3341  0.0747
 3234SOL     H135901   3.903   2.354   1.525  0.5506 -0.2593  0.6863
 3234SOL     H235902   3.977   2.236   1.585  0.1262 -0.6300  0.4869
 3235SOL    OH235903   6.217   0.539   0.053 -0.3707  0.2917 -0.0500
 3235SOL     H135904   6.157   0.531  -0.021 -0.0582  1.5315 -0.4527
 3235SOL     H235905   6.301   0.562   0.013 -0.0662  0.4233  0.6573
 3236SOL    OH235906   1.464   7.651   0.641 -0.3639 -0.7273  0.3051
 3236SOL     H135907   1.534   7.716   0.630  1.0055 -2.2170  0.1286
 3236SOL     H235908   1.384   7.699   0.618  0.7641  0.5235 -1.1408
 3237SOL    OH235909   6.141   6.696   1.081 -0.3516  0.3742  0.1818
 3237SOL     H135910   6.162   6.761   1.148 -0.5388  0.8056 -0.1768
 3237SOL     H235911   6.210   6.706   1.015 -1.3222  1.3643 -0.6933
 3238SOL    OH235912   4.383   4.115   6.637  0.3754 -0.5198 -0.3731
 3238SOL     H135913   4.354   4.029   6.606  1.0699 -0.6933 -0.5342
 3238SOL     H235914   4.310   4.145   6.692  0.4503 -1.5472  0.3091
 3239SOL    OH235915   3.407   4.650   1.523  0.2837 -0.3143  0.2017
 3239SOL     H135916   3.373   4.577   1.575 -0.5150  0.1846  0.3793
 3239SOL     H235917   3.418   4.614   1.435 -0.3879 -0.5633  0.2218
 3240SOL    OH235918   1.143   1.595   7.132  0.6319 -0.3304 -0.7144
 3240SOL     H135919   1.168   1.676   7.089 -0.6379  0.3315 -0.2257
 3240SOL     H235920   1.048   1.594   7.129  0.5996 -1.3554  0.1145
 3241SOL    OH235921   7.747   4.547   1.750  0.1122  0.0928  0.0102
 3241SOL     H135922   7.760   4.546   1.655  0.8552  2.8466  0.0555
 3241SOL     H235923   7.652   4.554   1.761 -0.0626 -1.2255 -0.4847
 3242SOL    OH235924   1.230   3.375   7.576  0.3983  0.0573  0.0024
 3242SOL     H135925   1.179   3.431   7.635 -0.4254 -1.1963  0.5252
 3242SOL     H235926   1.165   3.336   7.518  0.8879 -0.7051 -0.0453
 3243SOL    OH235927   7.466   6.776   1.136 -0.0794  0.6359  0.0088
 3243SOL     H135928   7.522   6.770   1.058  0.5352  0.9519  0.4169
 3243SOL     H235929   7.377   6.785   1.101 -0.0482 -1.2868 -0.6538
 3244SOL    OH235930   0.647   6.752   6.968  0.4642 -0.2552 -0.1180
 3244SOL     H135931   0.617   6.837   6.936  1.6886  0.0674 -0.4409
 3244SOL     H235932   0.706   6.773   7.041  0.4906 -0.8445  0.0336
 3245SOL    OH235933   0.265   7.227   8.203  0.1419  0.2060  0.8552
 3245SOL     H135934   0.344   7.279   8.188  0.8823 -0.5254  2.1853
 3245SOL     H235935   0.278   7.185   8.288 -2.4929  1.5697  2.0152
 3246SOL    OH235936   1.318   5.544   8.291  0.4958  0.3336 -0.5202
 3246SOL     H135937   1.303   5.461   8.245  0.6479 -0.0053  0.0314
 3246SOL     H235938   1.411   5.562   8.276  0.5885  0.1308 -0.2043
 3247SOL    OH235939   1.411   7.513   6.873  0.6029 -0.8095  0.4156
 3247SOL     H135940   1.460   7.449   6.821  2.1886 -0.4496  1.4150
 3247SOL     H235941   1.452   7.510   6.959  0.7928  1.6424  0.4336
 3248SOL    OH235942   5.804   2.023   8.086  0.5787 -0.0485  0.1859
 3248SOL     H135943   5.709   2.018   8.092  0.4791  0.3776 -0.9180
 3248SOL     H235944   5.831   2.065   8.168  0.0207 -2.2324  1.5369
 3249SOL    OH235945   4.582   7.289   6.409 -0.4893  0.4010  0.8011
 3249SOL     H135946   4.562   7.284   6.315 -1.1788 -0.6114  1.0024
 3249SOL     H235947   4.528   7.361   6.441 -0.0557  0.9209  0.3763
 3250SOL    OH235948   4.934   6.057   0.101  0.4214  0.4118 -0.4196
 3250SOL     H135949   4.853   6.101   0.075  0.5456  0.1768 -1.2279
 3250SOL     H235950   4.956   6.096   0.186  1.6679  3.4583 -2.0634
 3251SOL    OH235951   3.388   3.008   1.316  0.3849 -0.0063 -0.7208
 3251SOL     H135952   3.408   2.919   1.287 -0.0402 -0.4787  0.4352
 3251SOL     H235953   3.331   3.043   1.247 -1.1542 -1.3464 -0.1595
 3252SOL    OH235954   0.186   3.508   0.135 -0.1146  0.4684 -0.5057
 3252SOL     H135955   0.171   3.561   0.056  0.1430 -1.3703 -1.8187
 3252SOL     H235956   0.162   3.566   0.207 -2.3515  1.4989 -2.0253
 3253SOL    OH235957   1.891   7.096   1.216  0.0538  0.3872  0.0515
 3253SOL     H135958   1.829   7.169   1.227 -0.3488 -0.1261  1.2698
 3253SOL     H235959   1.968   7.136   1.175 -0.4467  1.3615  0.0429
 3254SOL    OH235960   6.497   7.298   0.027  0.3237 -0.3433  0.1841
 3254SOL     H135961   6.477   7.256  -0.056 -0.3995 -1.7754  1.0588
 3254SOL     H235962   6.578   7.256   0.056 -0.0727 -0.7133  0.7718
 3255SOL    OH235963   7.060   2.961   6.754 -0.2272  0.4458  0.0594
 3255SOL     H135964   7.044   3.039   6.807 -0.2783  0.5447 -0.1015
 3255SOL     H235965   7.124   2.911   6.804 -0.4901  0.3999  0.3580
 3256SOL    OH235966   2.454   4.616   0.549 -0.3231 -0.1111  0.3539
 3256SOL     H135967   2.518   4.673   0.505  0.4708  0.6666  2.4612
 3256SOL     H235968   2.472   4.627   0.642 -1.0090 -2.8758  0.8515
 3257SOL    OH235969   6.894   0.018   0.271 -0.2717  0.3957  0.4079
 3257SOL     H135970   6.942   0.073   0.209 -0.9459  1.0433  0.4552
 3257SOL     H235971   6.886  -0.067   0.227 -0.2428  0.6815 -0.1477
 3258SOL    OH235972   1.688   1.136   7.337  0.9365 -0.1292 -0.2832
 3258SOL     H135973   1.659   1.117   7.248  1.6134 -0.6114 -0.4109
 3258SOL     H235974   1.715   1.051   7.372 -1.1483 -0.2705  1.0725
 3259SOL    OH235975   0.496   5.486   7.488 -0.1362 -0.0071  0.7629
 3259SOL     H135976   0.541   5.405   7.511  2.4912  1.2882  0.3666
 3259SOL     H235977   0.517   5.501   7.395 -3.7912 -0.8490 -0.2872
 3260SOL    OH235978   6.780   2.600   7.807 -0.1157  0.3338 -0.0781
 3260SOL     H135979   6.720   2.639   7.744 -0.2482 -0.3341 -0.3622
 3260SOL     H235980   6.809   2.519   7.766  1.5895  1.0372 -0.2748
 3261SOL    OH235981   4.995   4.822   2.810  0.0248 -0.1432  0.3299
 3261SOL     H135982   5.054   4.843   2.739  2.7233 -0.3428  2.4236
 3261SOL     H235983   4.964   4.907   2.842 -0.7340 -0.0329 -0.6960
 3262SOL    OH235984   7.936   7.310   1.478  0.1222 -0.0858 -0.0798
 3262SOL     H135985   8.026   7.312   1.512  0.4981  0.1326 -1.0922
 3262SOL     H235986   7.885   7.272   1.550  1.3402 -2.0801 -0.2261
 3263SOL    OH235987   4.482   6.401   1.403 -0.0856  0.2211 -0.3784
 3263SOL     H135988   4.469   6.477   1.346 -0.8730  1.4765  1.4193
 3263SOL     H235989   4.562   6.422   1.452  2.2282 -2.1296 -2.9670
 3264SOL    OH235990   0.113   5.214   8.049  0.0168 -0.1639 -0.6527
 3264SOL     H135991   0.138   5.164   8.127 -0.7899 -1.8853 -1.4619
 3264SOL     H235992   0.098   5.147   7.982 -0.7896  1.1989 -1.8608
 3265SOL    OH235993   0.464   6.181   7.005  0.2018  0.3116 -0.4516
 3265SOL     H135994   0.529   6.118   7.037  0.4262  0.1665 -1.1675
 3265SOL     H235995   0.411   6.202   7.081  0.5425 -0.2436 -0.0550
 3266SOL    OH235996   6.341   6.407   5.808 -0.4178  0.4292 -1.0397
 3266SOL     H135997   6.328   6.325   5.761 -0.4620  0.7987 -1.6895
 3266SOL     H235998   6.436   6.416   5.816 -0.4523 -1.0905  1.5823
 3267SOL    OH235999   2.644   0.395   1.274  0.5932  0.3625  0.6566
 3267SOL     H136000   2.673   0.392   1.183  1.6533 -0.5316  1.0190
 3267SOL     H236001   2.554   0.428   1.269  0.2692 -0.6787 -0.8076
 3268SOL    OH236002   4.596   6.059   1.745  0.2173  0.0802 -0.3096
 3268SOL     H136003   4.589   6.028   1.655 -0.2220 -1.7251  0.3211
 3268SOL     H236004   4.639   5.987   1.791 -0.6122  0.5097  1.1558
 3269SOL    OH236005   0.156   4.802   0.033  0.1192  0.6141  0.6503
 3269SOL     H136006   0.103   4.773   0.107 -1.2096  0.4655 -0.3394
 3269SOL     H236007   0.121   4.753  -0.041  0.9703  1.2822 -0.1953
 3270SOL    OH236008   7.634   6.381   0.966  0.2486 -0.1029 -0.1103
 3270SOL     H136009   7.540   6.389   0.983  0.0405 -0.7824 -0.9251
 3270SOL     H236010   7.645   6.406   0.875  0.9913  0.8278  0.2238
 3271SOL    OH236011   3.486   5.692   1.252 -0.0345  0.1667 -0.3059
 3271SOL     H136012   3.545   5.637   1.201  0.3803 -0.7630  1.1473
 3271SOL     H236013   3.541   5.764   1.283  0.5327 -1.0814  1.6473
 3272SOL    OH236014   4.504   2.464   6.431 -0.0488 -0.2656  0.9184
 3272SOL     H136015   4.474   2.518   6.358 -0.3933 -2.7995 -0.8401
 3272SOL     H236016   4.595   2.492   6.445 -0.3044  0.9519  0.2189
 3273SOL    OH236017   5.179   4.041   1.697 -0.2208  0.5982  0.1402
 3273SOL     H136018   5.101   4.019   1.748  0.8207 -0.4046  1.3371
 3273SOL     H236019   5.195   3.963   1.644  0.7874  0.2386  0.9613
 3274SOL    OH236020   3.441   2.623   5.811 -0.5900 -0.0798 -0.0861
 3274SOL     H136021   3.414   2.544   5.764  1.2518 -0.4343 -0.5922
 3274SOL     H236022   3.463   2.686   5.742 -0.1689  0.2019  0.2988
 3275SOL    OH236023   6.617   6.362   1.548 -0.0174 -0.1420  0.3220
 3275SOL     H136024   6.540   6.365   1.491 -0.6845  0.2962  1.2411
 3275SOL     H236025   6.658   6.277   1.529 -1.1253 -0.6902  0.3450
 3276SOL    OH236026   1.386   6.159   1.685  0.5263  0.1326 -0.4344
 3276SOL     H136027   1.293   6.155   1.663  0.4362  0.6599 -0.1366
 3276SOL     H236028   1.412   6.249   1.667  0.6307  0.3830  0.8898
 3277SOL    OH236029   1.794   3.069   0.518 -0.1771  0.0673 -0.0579
 3277SOL     H136030   1.860   3.022   0.467  1.1439  1.6694  0.1117
 3277SOL     H236031   1.711   3.049   0.475  0.6360 -0.5118 -1.3928
 3278SOL    OH236032   1.414   6.485   0.091  0.0654  0.2580 -0.5124
 3278SOL     H136033   1.434   6.537   0.013  1.4206  0.0692 -0.2941
 3278SOL     H236034   1.377   6.404   0.057  0.7139  0.1503 -0.9708
 3279SOL    OH236035   2.841   1.664   7.991  0.4314  0.1983 -0.1218
 3279SOL     H136036   2.836   1.649   8.085 -0.9688 -1.9004 -0.4893
 3279SOL     H236037   2.750   1.664   7.962  0.9481 -3.0276 -1.9872
 3280SOL    OH236038   2.770   4.400   8.221 -0.3446 -0.1058  0.7931
 3280SOL     H136039   2.725   4.433   8.143  0.0170  0.2625  0.7363
 3280SOL     H236040   2.737   4.454   8.293  1.6420  1.6752  0.4220
 3281SOL    OH236041   6.624   5.802   1.565  0.3069 -0.5121  0.7875
 3281SOL     H136042   6.577   5.791   1.483  1.7852  0.8758 -0.2760
 3281SOL     H236043   6.589   5.734   1.622 -1.7416 -0.5937 -0.5239
 3282SOL    OH236044   5.238   1.807   0.811  0.2048 -0.2697 -0.2893
 3282SOL     H136045   5.232   1.902   0.817  1.8546 -0.0227 -2.2825
 3282SOL     H236046   5.305   1.782   0.875 -2.0463 -0.3867  2.1073
 3283SOL    OH236047   6.941   4.101   1.957  0.1151 -0.0667 -0.6596
 3283SOL     H136048   6.986   4.053   1.887  1.1028 -1.7418  1.0734
 3283SOL     H236049   7.008   4.117   2.023 -1.0457  0.5191  0.4053
 3284SOL    OH236050   2.988   5.911   7.570  0.0490 -0.6893  0.0830
 3284SOL     H136051   2.921   5.968   7.532  0.3907 -0.4412 -0.1551
 3284SOL     H236052   3.064   5.968   7.581  1.3126 -1.7278 -2.7655
 3285SOL    OH236053   5.059   6.475   2.173 -0.3481 -0.6457 -0.1241
 3285SOL     H136054   4.994   6.536   2.208 -0.3237 -0.9318  0.4277
 3285SOL     H236055   5.047   6.479   2.078 -2.8805 -2.5591  0.0603
 3286SOL    OH236056   1.765   1.979   0.523 -0.0733  0.5928 -0.0958
 3286SOL     H136057   1.775   2.068   0.489  0.6908 -0.1896 -2.0529
 3286SOL     H236058   1.838   1.969   0.585 -0.7367  1.6378  0.8727
 3287SOL    OH236059   2.570   6.739   2.060  0.4053 -0.2213  0.0725
 3287SOL     H136060   2.533   6.678   1.996  0.3169 -1.8438  1.6349
 3287SOL     H236061   2.494   6.789   2.091  0.1391 -0.8429  0.4175
 3288SOL    OH236062   5.494   0.710   6.526  0.0190 -0.1052 -0.1665
 3288SOL     H136063   5.541   0.631   6.500 -0.8605 -0.6620 -0.0888
 3288SOL     H236064   5.505   0.770   6.453  0.9413 -0.1824 -0.1035
 3289SOL    OH236065   1.937   3.733   0.928  0.2450 -0.1940  0.2302
 3289SOL     H136066   2.015   3.788   0.927 -1.4405  2.3276  0.3631
 3289SOL     H236067   1.872   3.784   0.879 -1.0957 -2.5507 -0.5043
 3290SOL    OH236068   1.654   4.503   7.386 -0.3843  0.3050  0.2393
 3290SOL     H136069   1.583   4.532   7.329  0.7704  1.4680 -0.6420
 3290SOL     H236070   1.620   4.513   7.475 -1.3487  0.7691 -0.1826
 3291SOL    OH236071   3.925   4.011   1.872 -0.4023  0.1496  0.5899
 3291SOL     H136072   3.913   3.983   1.963 -0.6237  0.8477  0.7834
 3291SOL     H236073   3.845   4.060   1.851  0.3657  1.4162  0.5693
 3292SOL    OH236074   6.814   4.344   1.992 -0.2135  0.3092  0.2756
 3292SOL     H136075   6.840   4.252   1.981 -0.5337  0.0813  1.3683
 3292SOL     H236076   6.718   4.342   1.988 -0.1938  0.7061 -0.4663
 3293SOL    OH236077   2.007   0.611   1.485 -0.2798  0.0523  0.1108
 3293SOL     H136078   1.975   0.694   1.449 -2.7602 -1.1678 -0.6168
 3293SOL     H236079   1.970   0.544   1.427  2.2012 -1.5737  0.3028
 3294SOL    OH236080   4.749   5.852   1.861  0.3101 -0.2248  0.4792
 3294SOL     H136081   4.737   5.759   1.883  1.2546 -0.5842 -0.4867
 3294SOL     H236082   4.788   5.891   1.939 -1.9060 -0.2018  1.6351
 3295SOL    OH236083   1.218   2.850   6.030  0.0459  0.0154  0.3636
 3295SOL     H136084   1.274   2.773   6.029 -1.1394 -0.8613  0.1446
 3295SOL     H236085   1.160   2.839   5.955 -0.7577  0.6426  0.8783
 3296SOL    OH236086   3.589   7.628   5.594 -0.0654 -0.0398  0.4885
 3296SOL     H136087   3.645   7.692   5.637  1.5902 -1.3484  0.3243
 3296SOL     H236088   3.599   7.548   5.647 -0.5637 -0.7235 -0.4267
 3297SOL    OH236089   7.046   0.416   1.527 -0.0698  0.1823  0.1209
 3297SOL     H136090   6.990   0.351   1.570 -0.5835  0.4140 -0.1907
 3297SOL     H236091   6.985   0.480   1.491  0.4565  1.0973  0.8360
 3298SOL    OH236092   2.780   3.116   8.124 -0.0323  0.3736 -0.3101
 3298SOL     H136093   2.853   3.162   8.165  0.1695 -0.7091  0.5706
 3298SOL     H236094   2.767   3.160   8.040  2.0155  0.1904 -0.7293
 3299SOL    OH236095   1.930   5.092   7.806  0.4546  0.6812 -0.6101
 3299SOL     H136096   1.880   5.018   7.840 -0.2562  2.0631  1.4298
 3299SOL     H236097   1.872   5.132   7.740  0.4018  0.0824 -0.9300
 3300SOL    OH236098   4.331   1.185   7.709 -0.5453  0.5095  0.3092
 3300SOL     H136099   4.303   1.100   7.744 -0.2211  0.9549  1.6982
 3300SOL     H236100   4.250   1.230   7.688 -0.7143 -0.2801 -0.8160
 3301SOL    OH236101   1.813   3.873   7.785 -0.1280 -0.1034  0.3934
 3301SOL     H136102   1.743   3.871   7.850  0.5055  0.2088  1.1058
 3301SOL     H236103   1.844   3.963   7.786  0.1701 -0.1985 -0.0333
 3302SOL    OH236104   1.834   5.498   2.328  0.1828  0.8023  0.4146
 3302SOL     H136105   1.872   5.472   2.412 -1.3487  0.0439  0.8872
 3302SOL     H236106   1.904   5.484   2.264  0.4280 -1.4284  1.1399
 3303SOL    OH236107   3.941   7.516   1.658 -0.1276 -0.5304  0.1651
 3303SOL     H136108   3.974   7.512   1.569 -0.0857  0.9880  0.1020
 3303SOL     H236109   3.860   7.465   1.656 -0.0055 -0.7000 -0.6739
 3304SOL    OH236110  -0.025   3.412   6.570 -0.2010  0.9479  0.0544
 3304SOL     H136111  -0.025   3.368   6.655 -0.7028  0.7086 -0.0654
 3304SOL     H236112   0.056   3.384   6.528 -0.4300  0.2742  0.0556
 3305SOL    OH236113   1.321   6.548   1.092  0.4173 -0.0710 -0.2896
 3305SOL     H136114   1.262   6.473   1.103 -0.2264  0.3836 -0.5573
 3305SOL     H236115   1.262   6.622   1.077  0.9815  0.7898  1.6112
 3306SOL    OH236116   3.147   6.887   6.599 -0.2674 -0.1919  0.0273
 3306SOL     H136117   3.152   6.837   6.518 -1.8888  1.3876 -1.0951
 3306SOL     H236118   3.055   6.880   6.626  0.6386 -2.2422  2.7474
 3307SOL    OH236119   3.533   2.156   7.297 -0.0987  0.1898 -0.1050
 3307SOL     H136120   3.486   2.217   7.240 -0.6968  0.5955  0.7967
 3307SOL     H236121   3.585   2.212   7.354  1.2264 -0.2513 -0.8800
 3308SOL    OH236122   3.026   6.923   7.122 -0.3098 -0.2432 -0.1005
 3308SOL     H136123   2.972   6.908   7.044 -0.1031  1.5809 -0.6268
 3308SOL     H236124   3.094   6.856   7.118 -1.5132 -1.4539 -0.3739
 3309SOL    OH236125   7.163   3.747   6.994 -0.1106  0.0618 -0.3477
 3309SOL     H136126   7.236   3.711   7.043 -0.0798  0.0657 -0.3900
 3309SOL     H236127   7.146   3.682   6.925 -0.7130 -0.3615  0.1918
 3310SOL    OH236128   3.940   6.749   0.502 -0.3092 -0.2212 -0.4458
 3310SOL     H136129   3.910   6.833   0.537 -0.8576 -0.2894 -0.7531
 3310SOL     H236130   3.903   6.746   0.414 -1.4758 -1.4364  0.0752
 3311SOL    OH236131   5.633   2.651   0.556  0.0635  0.1753 -0.6117
 3311SOL     H136132   5.699   2.586   0.581 -0.4694 -0.1373  0.0030
 3311SOL     H236133   5.635   2.715   0.627 -0.8336 -0.2446 -0.1988
 3312SOL    OH236134   0.294   2.434   7.674  0.2461 -0.2678  0.5354
 3312SOL     H136135   0.216   2.414   7.725 -0.8075 -1.4511 -1.4677
 3312SOL     H236136   0.273   2.517   7.630 -0.8289 -1.7048 -1.7540
 3313SOL    OH236137   7.593   4.715   7.941 -0.2916 -0.0806 -0.3759
 3313SOL     H136138   7.648   4.778   7.987  0.4023 -0.7584 -0.2678
 3313SOL     H236139   7.616   4.726   7.849  0.3889 -0.7129 -0.2814
 3314SOL    OH236140   4.737   4.371   2.348 -0.3574 -0.8238 -0.3604
 3314SOL     H136141   4.710   4.279   2.352  1.8946 -1.6921 -3.4098
 3314SOL     H236142   4.812   4.377   2.407 -0.3506 -0.9609 -0.3572
 3315SOL    OH236143   3.490   1.954   0.334 -0.2243  0.3770 -0.2419
 3315SOL     H136144   3.424   1.887   0.314  0.6887 -0.3520 -0.8928
 3315SOL     H236145   3.555   1.946   0.264  1.2614  0.1432  1.1082
 3316SOL    OH236146   4.185   6.260   5.651  0.2510  0.2997 -0.0427
 3316SOL     H136147   4.280   6.269   5.654  0.2785 -0.2127  0.7191
 3316SOL     H236148   4.155   6.336   5.600  1.0335  0.6614  0.0311
 3317SOL    OH236149   7.077   6.377   8.137 -0.6722 -0.1376  0.0264
 3317SOL     H136150   7.110   6.409   8.053 -0.4528 -0.6726 -0.0901
 3317SOL     H236151   7.064   6.283   8.124  0.4583 -0.4378  0.9328
 3318SOL    OH236152   3.839   7.168   1.186  0.7015  0.2675  0.5687
 3318SOL     H136153   3.899   7.145   1.257  0.4595 -1.4059  0.2492
 3318SOL     H236154   3.895   7.208   1.120  1.1051  0.8260  1.2439
 3319SOL    OH236155   4.267   2.132   7.881 -0.1221 -0.1270 -0.8836
 3319SOL     H136156   4.337   2.076   7.850  0.6689  1.1720 -1.4672
 3319SOL     H236157   4.308   2.217   7.897 -1.3387  0.3663 -0.2250
 3320SOL    OH236158   7.402   4.953   0.879 -0.2134  0.8036  0.5390
 3320SOL     H136159   7.410   4.949   0.784  0.1834  0.0127  0.6060
 3320SOL     H236160   7.492   4.954   0.911 -0.3493  0.3712  0.9355
 3321SOL    OH236161   4.051   6.032   8.173 -0.5183  0.4611  0.0550
 3321SOL     H136162   3.959   6.012   8.192 -0.5747  1.1148  0.4722
 3321SOL     H236163   4.049   6.120   8.135  0.0501  0.9401  1.1329
 3322SOL    OH236164   1.818   6.158   8.029 -0.2624 -0.3097  0.1915
 3322SOL     H136165   1.783   6.144   7.941 -0.5383 -0.6175  0.3483
 3322SOL     H236166   1.911   6.140   8.022 -0.0995  0.6630 -0.2674
 3323SOL    OH236167   4.102   1.628   0.340 -0.5295  0.4423  0.2261
 3323SOL     H136168   4.165   1.673   0.284  1.2191 -0.4507  1.4370
 3323SOL     H236169   4.052   1.699   0.381  1.0027  1.2388  0.7550
 3324SOL    OH236170   1.497   1.510   6.357  0.3061  0.3722  0.1233
 3324SOL     H136171   1.516   1.507   6.451  2.0809  1.9827 -0.1355
 3324SOL     H236172   1.433   1.441   6.343 -0.4985  0.5411  2.6372
 3325SOL    OH236173   0.542   4.864   0.462 -0.7088 -0.5477 -0.0379
 3325SOL     H136174   0.541   4.958   0.445  1.8131 -0.8547 -2.2920
 3325SOL     H236175   0.528   4.856   0.556 -0.5473  2.0939  0.2412
 3326SOL    OH236176   5.808   1.756   7.309 -0.5317 -0.1394  0.1839
 3326SOL     H136177   5.747   1.683   7.320  0.2721 -0.9373 -0.6468
 3326SOL     H236178   5.894   1.719   7.330 -0.0240  0.3667 -0.9779
 3327SOL    OH236179   6.250   4.141   2.600 -0.5948  0.1122  0.4210
 3327SOL     H136180   6.186   4.209   2.619 -0.5955  0.2776 -0.1828
 3327SOL     H236181   6.335   4.186   2.600 -0.1282 -0.5991  4.1241
 3328SOL    OH236182   7.475   7.850   2.360 -0.0697 -0.5148  0.4896
 3328SOL     H136183   7.451   7.931   2.315 -2.8878 -1.6835 -0.2020
 3328SOL     H236184   7.404   7.835   2.422  0.1913 -2.6963  0.2820
 3329SOL    OH236185   0.407   5.088   1.375  0.4363  0.4769  0.1594
 3329SOL     H136186   0.465   5.024   1.334 -0.9331  0.1229 -1.2566
 3329SOL     H236187   0.391   5.153   1.307 -0.6721  0.6777  0.6113
 3330SOL    OH236188   0.322   0.220   7.051 -0.6618  0.5778  0.1600
 3330SOL     H136189   0.377   0.266   7.114  1.6050 -0.7844 -0.7533
 3330SOL     H236190   0.264   0.166   7.105  1.8300 -1.2324  1.1528
 3331SOL    OH236191   3.024   6.025   5.758 -0.5610 -0.1942  0.5714
 3331SOL     H136192   2.949   6.020   5.699 -0.1534  0.8603 -0.0639
 3331SOL     H236193   3.046   5.934   5.777 -0.9128 -0.5400 -0.6364
 3332SOL    OH236194   4.734   7.458   7.468  0.1233 -0.3891 -0.2512
 3332SOL     H136195   4.757   7.438   7.377  1.3913 -1.1495  0.2142
 3332SOL     H236196   4.675   7.387   7.494  2.3896 -2.0513  0.5211
 3333SOL    OH236197   7.639   6.702   6.814  0.7409 -0.1376 -0.0569
 3333SOL     H136198   7.642   6.775   6.753 -0.1604  0.7010  0.8994
 3333SOL     H236199   7.666   6.739   6.898  0.3706 -0.9140  0.4145
 3334SOL    OH236200   4.777   1.812   7.868 -0.1092  0.0767  0.1750
 3334SOL     H136201   4.690   1.838   7.898 -0.4330  0.9565 -1.4434
 3334SOL     H236202   4.763   1.727   7.826 -0.2978  0.4669 -0.5635
 3335SOL    OH236203   1.994   6.102   1.622 -0.1768  0.0524 -0.3823
 3335SOL     H136204   2.066   6.159   1.596 -0.9623  0.5192 -1.5804
 3335SOL     H236205   2.026   6.013   1.607  0.1481  0.2617 -0.9514
 3336SOL    OH236206   2.137   6.941   7.784 -0.0915  0.4303  0.0277
 3336SOL     H136207   2.054   6.901   7.811 -0.9705  1.9030 -0.3781
 3336SOL     H236208   2.124   6.960   7.691  0.7393  0.6035 -0.0514
 3337SOL    OH236209   0.227   7.268   1.592 -0.4469  0.6595  0.1831
 3337SOL     H136210   0.285   7.327   1.544  0.0695  1.0505  1.2645
 3337SOL     H236211   0.246   7.286   1.685 -1.0340 -0.4572  0.5306
 3338SOL    OH236212   3.834   0.669   6.797 -0.2610 -0.1071 -0.1113
 3338SOL     H136213   3.787   0.586   6.802  0.2773 -0.3483  1.1939
 3338SOL     H236214   3.887   0.671   6.876  0.3590  1.1083 -0.5475
 3339SOL    OH236215   4.914   5.228   7.676  0.2571 -0.1398  0.4698
 3339SOL     H136216   4.949   5.244   7.764  1.4994 -0.1681 -0.0022
 3339SOL     H236217   4.824   5.199   7.691  0.5987 -0.5855  1.7593
 3340SOL    OH236218   3.323   1.300   6.044  0.0207 -0.5057 -0.2099
 3340SOL     H136219   3.311   1.243   5.968  2.4470 -1.3825  0.0125
 3340SOL     H236220   3.372   1.246   6.106  0.0794  0.9804  1.0437
 3341SOL    OH236221   0.071   3.260   8.240 -0.1270  0.8516  0.0587
 3341SOL     H136222   0.100   3.295   8.324  0.1143  1.5206 -0.3016
 3341SOL     H236223   0.043   3.170   8.260  0.8756  0.6618  0.6597
 3342SOL    OH236224   7.276   0.942   0.522  0.2196  0.2246 -0.4432
 3342SOL     H136225   7.273   0.846   0.521 -0.2381  0.2382 -0.4076
 3342SOL     H236226   7.348   0.962   0.583 -1.3696 -0.0776  1.5978
 3343SOL    OH236227   5.831   3.579   2.263  0.0599 -0.7259  0.5078
 3343SOL     H136228   5.854   3.513   2.197 -0.8860  0.4133 -1.0113
 3343SOL     H236229   5.740   3.559   2.285 -0.8947  1.1978 -1.4274
 3344SOL    OH236230   6.975   3.628   0.629 -0.1178  0.3709 -0.7079
 3344SOL     H136231   7.061   3.670   0.628  0.5551 -0.9896 -0.6580
 3344SOL     H236232   6.932   3.663   0.708  1.3585 -0.8514  0.6612
 3345SOL    OH236233   2.320   7.596   7.666  0.2158 -0.0258  0.1291
 3345SOL     H136234   2.387   7.628   7.606  2.4912 -1.6140  1.7317
 3345SOL     H236235   2.360   7.521   7.710 -2.2520 -0.4079  1.8775
 3346SOL    OH236236   6.017   3.185   7.755  0.1753 -0.0089  0.3999
 3346SOL     H136237   6.008   3.110   7.695  1.1510 -0.3556  0.6710
 3346SOL     H236238   5.933   3.188   7.802  0.2343 -1.1283  0.6046
 3347SOL    OH236239   7.415   7.148   6.518 -0.4212 -0.3533  0.0442
 3347SOL     H136240   7.422   7.056   6.492  1.6850 -0.3966  0.7031
 3347SOL     H236241   7.464   7.196   6.451 -1.2327  0.2791 -0.1104
 3348SOL    OH236242   3.407   7.259   7.468 -0.4136 -0.0616 -0.1568
 3348SOL     H136243   3.446   7.318   7.533 -1.6376  1.6804 -0.9662
 3348SOL     H236244   3.425   7.171   7.502  1.8233  0.7519  0.8560
 3349SOL    OH236245   6.124   3.845   0.970  0.1635  0.3215 -0.2687
 3349SOL     H136246   6.209   3.886   0.988  0.3658 -0.8076  1.4117
 3349SOL     H236247   6.120   3.839   0.874  1.6503  1.0418 -0.3874
 3350SOL    OH236248   4.430   6.960   0.215 -0.2237  0.3569  0.2414
 3350SOL     H136249   4.375   6.917   0.280  0.5570 -0.0448  0.6483
 3350SOL     H236250   4.507   6.904   0.208  1.0916  1.9989  1.2142
 3351SOL    OH236251   5.382   2.424   1.957 -0.0315  0.3816  0.0286
 3351SOL     H136252   5.317   2.495   1.958 -1.8941 -1.2630 -0.9945
 3351SOL     H236253   5.423   2.431   1.870 -0.7168 -0.2413 -0.3438
 3352SOL    OH236254   3.257   5.830   1.066  0.4309 -0.0430  0.2826
 3352SOL     H136255   3.277   5.882   1.144  0.5528  0.7435 -0.2586
 3352SOL     H236256   3.210   5.891   1.009  0.1544 -0.6772 -0.1691
 3353SOL    OH236257   1.590   0.481   7.053 -0.0603 -0.6495  0.2449
 3353SOL     H136258   1.571   0.575   7.055 -0.4977 -0.7685  1.7346
 3353SOL     H236259   1.678   0.474   7.090 -0.1446 -0.8660  0.3984
 3354SOL    OH236260   6.565   6.056   1.219  0.1205 -0.4643  0.2472
 3354SOL     H136261   6.559   5.960   1.224  0.3837 -0.5570 -1.0479
 3354SOL     H236262   6.499   6.087   1.281  0.0737 -1.4784  0.7302
 3355SOL    OH236263   4.369   0.307   7.872 -0.1526  0.7350  0.3272
 3355SOL     H136264   4.325   0.381   7.831  0.8798  0.9056 -0.4940
 3355SOL     H236265   4.299   0.246   7.894 -0.9217  1.5756  0.2309
 3356SOL    OH236266   3.414   0.405   6.062  0.0124  0.0763 -0.4337
 3356SOL     H136267   3.492   0.462   6.068  0.6436 -0.6139 -1.8822
 3356SOL     H236268   3.384   0.397   6.153  2.9448 -1.4402  0.5027
 3357SOL    OH236269   5.091   4.164   2.056  0.1528  0.3784  0.0580
 3357SOL     H136270   5.016   4.130   2.104  0.8506 -0.2515  0.7036
 3357SOL     H236271   5.053   4.215   1.985 -0.9144 -1.9825 -1.1148
 3358SOL    OH236272   1.292   2.905   0.646  0.2242 -0.4210  0.1210
 3358SOL     H136273   1.345   2.851   0.705  1.1060 -0.9610 -1.1582
 3358SOL     H236274   1.256   2.844   0.582  1.5319  0.5260 -1.5726
 3359SOL    OH236275   2.948   7.382   0.753  0.2974  0.1429  0.0261
 3359SOL     H136276   2.859   7.349   0.771  0.1924 -0.2443 -1.1873
 3359SOL     H236277   3.005   7.318   0.796 -0.0013  0.4048  0.8306
 3360SOL    OH236278   5.931   4.328   0.979 -0.3467 -0.4192  0.5487
 3360SOL     H136279   5.986   4.405   0.992 -1.7128  1.0045 -1.7994
 3360SOL     H236280   5.843   4.358   0.999 -0.6170 -2.0274  1.8965
 3361SOL    OH236281   2.072   2.844   8.283 -0.3870 -0.3514 -0.2286
 3361SOL     H136282   2.136   2.788   8.239 -1.0036  0.2714 -1.9702
 3361SOL     H236283   2.002   2.785   8.310 -0.2307 -0.6665 -0.5113
 3362SOL    OH236284   6.147   4.273   3.142  0.0452 -0.1538  0.2299
 3362SOL     H136285   6.109   4.186   3.129  1.6269 -0.6934 -0.7929
 3362SOL     H236286   6.241   4.259   3.139  0.3054  1.7250 -0.7776
 3363SOL    OH236287   2.635   7.680   6.726 -0.6454  0.8015 -0.8336
 3363SOL     H136288   2.592   7.608   6.679 -0.7931  0.4934 -0.2331
 3363SOL     H236289   2.629   7.754   6.666 -0.3138  0.2680 -1.5501
 3364SOL    OH236290   3.699   6.067   6.539 -0.1473  0.2172  0.0631
 3364SOL     H136291   3.753   6.073   6.461  2.6290 -0.0341  1.8722
 3364SOL     H236292   3.762   6.060   6.611 -2.6234 -1.3069  2.1768
 3365SOL    OH236293   4.453   0.646   7.188 -0.5788  0.5100  0.0023
 3365SOL     H136294   4.440   0.604   7.273 -1.8638 -0.7721 -0.8076
 3365SOL     H236295   4.533   0.698   7.199 -0.2575 -0.3116  1.7308
 3366SOL    OH236296   1.590   0.736   7.213 -0.6036  0.1329  0.1111
 3366SOL     H136297   1.542   0.795   7.270  0.3010  1.1187 -0.1188
 3366SOL     H236298   1.682   0.763   7.223 -0.3330 -0.3290 -1.0364
 3367SOL    OH236299   6.267   3.008   7.452 -0.0971 -0.2012 -0.0477
 3367SOL     H136300   6.293   2.935   7.396  0.4775 -0.4172  0.4879
 3367SOL     H236301   6.172   3.001   7.459 -0.1534 -0.2765 -0.8428
 3368SOL    OH236302   3.120   5.325   1.838 -0.2713  0.3868 -0.4057
 3368SOL     H136303   3.173   5.352   1.914  1.0260 -0.0733 -1.1351
 3368SOL     H236304   3.100   5.233   1.854  0.7504  0.0533 -1.0535
 3369SOL    OH236305   3.045   5.139   7.623  0.2351 -0.2130 -0.5032
 3369SOL     H136306   2.975   5.184   7.670  0.9194 -0.0023  0.3257
 3369SOL     H236307   3.064   5.197   7.549  0.2909  0.2770 -0.1072
 3370SOL    OH236308   2.445   5.040   7.940 -0.3888  0.3443 -0.0915
 3370SOL     H136309   2.478   5.120   7.899 -0.9061  0.8154  0.3925
 3370SOL     H236310   2.350   5.047   7.933 -0.4795  0.3505  1.0116
 3371SOL    OH236311   1.393   1.289   8.241  0.0681  0.1341 -0.6667
 3371SOL     H136312   1.422   1.212   8.290  0.3760  0.8464  0.3034
 3371SOL     H236313   1.326   1.257   8.181 -2.7172 -0.2448  2.4954
 3372SOL    OH236314   6.367   2.379   1.356  0.4633  0.2635 -0.4351
 3372SOL     H136315   6.281   2.420   1.361 -0.8839 -2.1123 -2.4814
 3372SOL     H236316   6.371   2.344   1.266  3.5271  0.2490 -0.3492
 3373SOL    OH236317   2.608   2.507   0.102  0.0482 -0.0807  0.0767
 3373SOL     H136318   2.675   2.510   0.171  0.2236 -2.9451  0.0949
 3373SOL     H236319   2.591   2.599   0.081  3.7419  0.7141  0.2931
 3374SOL    OH236320   0.377   2.535   0.730  0.4799  0.1485  0.1587
 3374SOL     H136321   0.375   2.439   0.721  1.3071 -0.0886  2.1111
 3374SOL     H236322   0.328   2.567   0.655 -0.7286 -1.8650  0.0409
 3375SOL    OH236323   1.114   6.015   7.622 -0.8501 -0.2986 -0.3797
 3375SOL     H136324   1.204   5.984   7.634 -0.9343  0.1911  1.5399
 3375SOL     H236325   1.095   5.994   7.530  2.1239  1.9454 -1.6167
 3376SOL    OH236326   5.172   7.936   1.995 -0.2892 -0.2830  0.0758
 3376SOL     H136327   5.245   7.958   1.938  1.3056 -0.0440  2.1732
 3376SOL     H236328   5.095   7.970   1.949  1.1349  1.2990 -1.1883
 3377SOL    OH236329   1.292   4.776   1.282 -0.3647 -0.1419  0.8299
 3377SOL     H136330   1.386   4.793   1.285 -0.5057  0.8536 -0.3705
 3377SOL     H236331   1.280   4.719   1.206 -0.9938  1.4487 -0.2795
 3378SOL    OH236332   0.907   5.166   1.919  0.1260 -0.0065 -0.2463
 3378SOL     H136333   0.867   5.138   1.837  1.1347 -0.5306 -0.5749
 3378SOL     H236334   0.957   5.244   1.896 -0.8108  0.7325  0.1933
 3379SOL    OH236335   6.241   7.641   1.191  0.1419 -0.0381  0.0165
 3379SOL     H136336   6.161   7.621   1.143  0.7374  1.0861 -1.4770
 3379SOL     H236337   6.233   7.592   1.273 -2.9281  1.4913  0.6934
 3380SOL    OH236338   6.753   5.351   6.775 -0.2400  1.1857  0.4487
 3380SOL     H136339   6.759   5.434   6.821  1.2197  2.3974 -1.8195
 3380SOL     H236340   6.843   5.328   6.754 -0.7582 -0.0222 -0.5670
 3381SOL    OH236341   2.117   3.952   0.383 -0.1828 -0.0040  0.9566
 3381SOL     H136342   2.144   4.044   0.382 -0.4924  0.0864  0.9581
 3381SOL     H236343   2.034   3.950   0.336 -1.4243  0.1108  3.0593
 3382SOL    OH236344   7.954   4.658   0.240  0.3294  0.0299  0.0878
 3382SOL     H136345   7.877   4.636   0.292  0.8887 -3.5408 -0.4598
 3382SOL     H236346   8.024   4.672   0.304 -0.0144  0.0992  0.4487
 3383SOL    OH236347   0.406   1.576   6.759 -0.1288 -0.4475  0.2604
 3383SOL     H136348   0.328   1.523   6.774 -0.1033 -0.8953 -1.1308
 3383SOL     H236349   0.398   1.606   6.668  0.5001  0.8703  0.6274
 3384SOL    OH236350   2.590   0.148   7.283  0.8492 -0.8153  0.5961
 3384SOL     H136351   2.609   0.185   7.197 -0.1983  0.3187  0.8382
 3384SOL     H236352   2.637   0.204   7.345 -1.6929  0.8804  1.0521
 3385SOL    OH236353   5.637   1.247   8.263 -0.1234 -0.1748  0.1791
 3385SOL     H136354   5.587   1.194   8.325  0.4683  1.1095  1.8168
 3385SOL     H236355   5.581   1.323   8.247  0.1362 -0.0438 -0.0954
 3386SOL    OH236356   0.194   1.084   6.329  0.0733 -0.5021 -0.0330
 3386SOL     H136357   0.216   1.148   6.262  1.9232 -0.7969  0.2653
 3386SOL     H236358   0.247   1.109   6.405 -1.1620 -0.8304  0.9552
 3387SOL    OH236359   3.941   1.012   0.277 -0.0072  0.0891  0.1604
 3387SOL     H136360   3.914   0.932   0.322 -1.4018  0.1729 -0.4801
 3387SOL     H236361   3.947   0.987   0.184 -0.2340  0.6574 -0.0124
 3388SOL    OH236362   6.118   1.805   0.527  0.9136  0.5854 -0.2977
 3388SOL     H136363   6.051   1.859   0.485  0.6855 -0.4602 -1.3292
 3388SOL     H236364   6.086   1.792   0.616 -0.6903 -0.5965 -1.0258
 3389SOL    OH236365   4.337   6.081   2.036 -0.2494  0.7098 -0.7853
 3389SOL     H136366   4.379   5.997   2.015 -0.7969  0.8566 -2.5622
 3389SOL     H236367   4.384   6.112   2.113  0.9037 -0.5568 -0.9459
 3390SOL    OH236368   3.586   0.827   0.251  0.1661  0.1015 -0.1379
 3390SOL     H136369   3.663   0.811   0.305 -0.5841  0.0835  0.9625
 3390SOL     H236370   3.565   0.741   0.214 -0.9208 -0.5044  1.7713
 3391SOL    OH236371   7.844   3.522   1.289 -0.4859 -0.1365 -0.4897
 3391SOL     H136372   7.839   3.580   1.212 -1.0399  1.8658  1.0130
 3391SOL     H236373   7.930   3.541   1.326 -1.2282  0.7560  0.7932
 3392SOL    OH236374   7.687   3.169   1.173  0.1775  0.0773 -0.2012
 3392SOL     H136375   7.770   3.164   1.220  1.1657 -1.7226 -2.0161
 3392SOL     H236376   7.669   3.078   1.148 -1.2873  0.7210 -1.5935
 3393SOL    OH236377   4.718   3.288   7.649  0.0576 -0.1289 -0.0887
 3393SOL     H136378   4.689   3.332   7.569 -0.6688 -1.2360 -0.4475
 3393SOL     H236379   4.643   3.236   7.677  0.4824 -0.1650  1.0230
 3394SOL    OH236380   0.902   7.260   8.100  0.3870 -0.3825 -0.6421
 3394SOL     H136381   0.907   7.349   8.063  3.4181  0.2943  1.1861
 3394SOL     H236382   0.959   7.208   8.043 -0.8851 -1.0433 -1.3297
 3395SOL    OH236383   5.304   3.059   7.129  0.1247  0.2021 -0.8631
 3395SOL     H136384   5.348   3.067   7.044 -0.8476  1.6190 -1.2495
 3395SOL     H236385   5.249   2.981   7.121  1.1442 -0.5049 -1.0186
 3396SOL    OH236386   2.637   7.432   7.483 -0.2598  0.4038  0.9076
 3396SOL     H136387   2.727   7.422   7.515 -0.2984  0.5122  1.0500
 3396SOL     H236388   2.608   7.516   7.518 -1.1264 -0.5544  2.5807
 3397SOL    OH236389   3.947   3.573   1.346  0.1214 -0.4712  0.4407
 3397SOL     H136390   4.029   3.619   1.367  1.8639 -2.7008 -1.1805
 3397SOL     H236391   3.924   3.606   1.259 -2.2736  2.1888  1.9980
 3398SOL    OH236392   6.285   6.672   6.925 -0.5092 -0.6313  0.3603
 3398SOL     H136393   6.236   6.754   6.934 -0.3168 -0.5427  0.6265
 3398SOL     H236394   6.250   6.616   6.994  2.0056  0.5678  2.7273
 3399SOL    OH236395   5.121   7.505   1.549  0.1371 -0.6608 -0.2194
 3399SOL     H136396   5.076   7.590   1.556  1.6540  0.1522 -0.0911
 3399SOL     H236397   5.077   7.461   1.477 -2.4905 -0.9056  1.4320
 3400SOL    OH236398   3.191   2.501   0.835  0.3233 -0.6571 -0.9092
 3400SOL     H136399   3.253   2.502   0.762  0.7117 -1.1791 -0.5840
 3400SOL     H236400   3.231   2.557   0.901 -0.0437 -0.1592 -1.1011
 3401SOL    OH236401   3.315   5.131   7.369 -0.3173  0.8637  0.2006
 3401SOL     H136402   3.226   5.152   7.343  0.2452  1.4069 -1.3492
 3401SOL     H236403   3.370   5.172   7.303  1.0526 -0.3622  0.5363
 3402SOL    OH236404   0.138   6.104   7.223  0.3985 -0.0590  0.4615
 3402SOL     H136405   0.122   6.020   7.266 -0.8152 -0.1095 -0.0837
 3402SOL     H236406   0.234   6.114   7.226  0.7235 -2.3154 -1.0537
 3403SOL    OH236407   4.321   7.015   7.616 -0.6188 -0.3767 -0.3100
 3403SOL     H136408   4.271   7.096   7.624  0.3057  0.0596  1.0532
 3403SOL     H236409   4.295   6.962   7.691 -0.8076 -1.1422 -0.8969
 3404SOL    OH236410   0.402   6.173   7.258  0.0419  0.1996  0.4309
 3404SOL     H136411   0.416   6.257   7.302 -0.4484 -0.2270  1.4281
 3404SOL     H236412   0.474   6.118   7.287  0.3324  0.2548 -0.1783
 3405SOL    OH236413   2.385   2.492   7.592  0.2288  0.3477  0.3427
 3405SOL     H136414   2.395   2.475   7.686 -1.5260 -0.5418  0.3829
 3405SOL     H236415   2.344   2.412   7.558  1.1255  0.5476 -1.2417
 3406SOL    OH236416   0.775   7.375   6.929 -0.3442 -0.1198  0.0609
 3406SOL     H136417   0.834   7.337   6.865 -1.1129 -2.7663  0.8849
 3406SOL     H236418   0.718   7.433   6.879  1.0007  0.1543 -1.1660
 3407SOL    OH236419   1.348   3.703   6.721 -0.7039 -0.3700  0.1649
 3407SOL     H136420   1.314   3.790   6.698 -0.4634 -0.3098  0.0373
 3407SOL     H236421   1.420   3.721   6.780  0.2830 -0.4186 -1.0049
 3408SOL    OH236422   6.886   3.405   0.949 -0.6198  0.4245  0.5876
 3408SOL     H136423   6.871   3.471   1.017  0.1518  2.2773 -0.9987
 3408SOL     H236424   6.798   3.383   0.918 -0.9312  0.1254  1.6435
 3409SOL    OH236425   2.822   7.357   7.846 -0.5495  0.1148 -0.7646
 3409SOL     H136426   2.902   7.308   7.867 -0.2826  0.7236 -0.3304
 3409SOL     H236427   2.753   7.291   7.845 -0.2113 -0.2570 -0.0509
 3410SOL    OH236428   4.530   1.538   0.637 -0.4529 -0.8404 -0.3603
 3410SOL     H136429   4.500   1.510   0.723  2.8130  0.6509  1.3616
 3410SOL     H236430   4.477   1.615   0.617 -3.1903 -2.8360 -1.0292
 3411SOL    OH236431   5.589   4.565   7.823  0.1595  0.5009  0.9530
 3411SOL     H136432   5.646   4.618   7.768  0.3635  0.6880  1.3449
 3411SOL     H236433   5.648   4.514   7.878  0.0428 -2.2715 -1.3893
 3412SOL    OH236434   3.471   2.636   6.093 -0.3565  0.0099  0.4165
 3412SOL     H136435   3.446   2.674   6.009  0.3776  1.7178  0.9427
 3412SOL     H236436   3.564   2.654   6.102 -0.3187 -0.5888  1.3688
 3413SOL    OH236437   5.426   6.294   0.684  0.0364 -0.0592 -0.5373
 3413SOL     H136438   5.460   6.290   0.595  2.6202  0.6050  0.3709
 3413SOL     H236439   5.386   6.208   0.698  0.1341 -0.3812 -2.1159
 3414SOL    OH236440   1.027   7.571   6.740 -0.1044  0.3872  0.7262
 3414SOL     H136441   0.996   7.504   6.801 -1.3082 -0.5811 -0.8954
 3414SOL     H236442   0.989   7.652   6.773 -1.5629 -0.2772  0.7521
 3415SOL    OH236443   3.555   1.315   2.038  0.3049 -0.8875  0.1387
 3415SOL     H136444   3.634   1.359   2.007 -1.2026  1.3004 -0.7432
 3415SOL     H236445   3.564   1.315   2.134 -0.1266  2.3675  0.2368
 3416SOL    OH236446   2.723   7.656   0.949  0.2685  0.3674 -0.3958
 3416SOL     H136447   2.674   7.604   0.885 -0.7395  1.5457 -0.5889
 3416SOL     H236448   2.709   7.611   1.032 -0.7469  0.4278 -0.5302
 3417SOL    OH236449   5.090   3.181   7.666  0.0967 -0.0025  0.4259
 3417SOL     H136450   5.046   3.156   7.748 -1.8767  2.2319  0.1286
 3417SOL     H236451   5.140   3.259   7.689 -2.3370  2.0305 -0.9666
 3418SOL    OH236452   5.930   7.903   7.037 -0.2171 -0.4561  0.3187
 3418SOL     H136453   5.941   7.855   6.954 -1.0954 -0.5158  0.2324
 3418SOL     H236454   5.862   7.967   7.019 -0.9765 -1.0036  1.2324
 3419SOL    OH236455   6.433   3.553   3.019 -0.1507  0.3415  0.0883
 3419SOL     H136456   6.364   3.489   3.032 -0.4280  0.8095  0.9518
 3419SOL     H236457   6.390   3.638   3.031  0.6097  0.6273  0.8005
 3420SOL    OH236458   4.241   5.732   6.362 -0.0450  0.4627  0.0669
 3420SOL     H136459   4.278   5.738   6.450  0.1284 -2.1385  0.1981
 3420SOL     H236460   4.311   5.693   6.309 -0.6403  0.7181 -0.9210
 3421SOL    OH236461   4.014   1.220   1.765  0.2215 -0.6284  0.5461
 3421SOL     H136462   4.078   1.154   1.736  0.8648 -0.3365  1.2843
 3421SOL     H236463   3.949   1.222   1.695  0.9719 -1.0049 -0.1756
 3422SOL    OH236464   2.463   2.210   7.466 -0.0601 -0.1362 -0.4609
 3422SOL     H136465   2.532   2.239   7.526 -1.7072 -0.4157  1.6178
 3422SOL     H236466   2.415   2.143   7.515 -1.3515 -0.4557 -2.1347
 3423SOL    OH236467   1.553   7.119   2.104  0.2346  0.1113 -0.7222
 3423SOL     H136468   1.592   7.046   2.152 -1.0293  0.6743  1.2112
 3423SOL     H236469   1.492   7.159   2.166 -1.8009  0.5713 -2.9441
 3424SOL    OH236470   5.047   6.714   6.478 -0.3343 -0.1659  0.1620
 3424SOL     H136471   5.041   6.725   6.383  0.5428 -1.3979 -0.0571
 3424SOL     H236472   5.003   6.631   6.495 -0.4305  0.0233  0.8276
 3425SOL    OH236473   4.612   6.745   7.099  0.3292 -0.4311  0.0480
 3425SOL     H136474   4.565   6.720   7.179  0.6954 -2.0440 -0.2408
 3425SOL     H236475   4.572   6.829   7.075 -1.3653 -1.0296  0.6568
 3426SOL    OH236476   7.196   6.169   6.803  0.1199  0.0501 -0.4179
 3426SOL     H136477   7.230   6.150   6.716 -0.7816  0.1445 -0.8070
 3426SOL     H236478   7.150   6.089   6.829 -1.4582  0.7462 -0.9609
 3427SOL    OH236479   1.695   3.867   1.459 -0.6790 -0.0117 -0.4010
 3427SOL     H136480   1.782   3.856   1.419 -0.6801 -1.5722 -0.0312
 3427SOL     H236481   1.694   3.957   1.491  0.9343 -0.0841 -0.1199
 3428SOL    OH236482   1.496   7.519   0.172 -1.0047 -0.1532 -0.2574
 3428SOL     H136483   1.569   7.457   0.178  0.0409  1.1608  1.1843
 3428SOL     H236484   1.532   7.592   0.122 -1.4981  0.2740  0.0124
 3429SOL    OH236485   5.319   4.594   7.646 -0.5420 -0.3528  0.0692
 3429SOL     H136486   5.399   4.540   7.650  0.0650  0.2389 -2.8259
 3429SOL     H236487   5.247   4.532   7.655  0.2250 -1.1395  0.8223
 3430SOL    OH236488   0.395   4.535   7.835 -1.0958 -0.3269  0.6976
 3430SOL     H136489   0.343   4.611   7.860 -0.3055  0.5395 -0.2173
 3430SOL     H236490   0.436   4.560   7.752  0.7989 -0.9590  1.4163
 3431SOL    OH236491   0.100   1.942   2.207  0.1858  0.0914  0.4207
 3431SOL     H136492   0.104   2.035   2.228 -1.6097 -0.0446  1.4470
 3431SOL     H236493   0.185   1.923   2.166  0.5036  2.1976  0.0510
 3432SOL    OH236494   2.636   6.167   7.634  0.1131  0.4634  0.0199
 3432SOL     H136495   2.698   6.135   7.568 -0.0100  0.5499 -0.1409
 3432SOL     H236496   2.576   6.223   7.584  0.1970  0.7651  0.2646
 3433SOL    OH236497   4.923   0.286   7.750  0.2997 -0.3380 -0.2437
 3433SOL     H136498   4.939   0.227   7.824  1.1116 -0.6773 -0.6798
 3433SOL     H236499   4.996   0.270   7.691  0.0010  0.4037 -0.8222
 3434SOL    OH236500   1.939   0.175   6.201  0.0968 -0.0290  0.0665
 3434SOL     H136501   1.999   0.204   6.133  0.1497  0.7521  0.4383
 3434SOL     H236502   1.852   0.183   6.161  0.0248  1.7315  0.5286
 3435SOL    OH236503   6.258   2.461   0.274  0.2364 -0.4832  0.7033
 3435SOL     H136504   6.322   2.431   0.209  0.5970  1.5279  0.1034
 3435SOL     H236505   6.174   2.457   0.228  0.1744 -1.3157  0.8815
 3436SOL    OH236506   2.530   5.244   8.176  0.2888 -0.2603  0.2955
 3436SOL     H136507   2.566   5.331   8.192 -0.4547 -0.2866  2.3610
 3436SOL     H236508   2.558   5.221   8.088  0.4132  2.1043 -0.2981
 3437SOL    OH236509   2.000   0.708   0.599  0.2743 -0.0163 -0.3109
 3437SOL     H136510   2.036   0.648   0.534  1.2648 -0.0707  0.2861
 3437SOL     H236511   1.941   0.653   0.651  2.8770 -1.0381  1.6659
 3438SOL    OH236512   4.802   7.510   1.803  0.4914  0.5582  0.0332
 3438SOL     H136513   4.807   7.605   1.814 -1.8334  0.8091 -0.8285
 3438SOL     H236514   4.792   7.497   1.708 -2.8352 -0.3040  0.4383
 3439SOL    OH236515   0.744   5.100   0.635  0.0064 -0.6847  0.1725
 3439SOL     H136516   0.792   5.024   0.665 -0.1464 -0.7752  0.1860
 3439SOL     H236517   0.812   5.166   0.618  0.0510 -0.4203  1.3098
 3440SOL    OH236518   3.428   3.488   0.083  0.2143 -0.3901 -0.5037
 3440SOL     H136519   3.362   3.534   0.135 -1.0166 -1.7545 -0.8314
 3440SOL     H236520   3.396   3.495  -0.007 -1.3517 -4.0199 -0.3088
 3441SOL    OH236521   2.983   5.020   0.195 -0.1510 -0.1730  0.3285
 3441SOL     H136522   2.961   5.113   0.192  0.4886 -0.0074  0.5814
 3441SOL     H236523   3.079   5.018   0.190 -0.1211 -0.7782  1.0218
 3442SOL    OH236524   7.494   3.698   8.063  0.2242  0.3946  0.0929
 3442SOL     H136525   7.483   3.791   8.042 -1.3785 -0.3439 -2.5727
 3442SOL     H236526   7.440   3.685   8.141  1.4142  1.9264  1.2083
 3443SOL    OH236527   4.223   5.413   0.915 -0.0382 -0.1341  0.0046
 3443SOL     H136528   4.143   5.458   0.942  0.0687 -0.3236  0.6441
 3443SOL     H236529   4.233   5.435   0.822 -0.3866  0.5489  0.1304
 3444SOL    OH236530   3.330   5.054   6.954 -0.5497  0.1744 -0.1003
 3444SOL     H136531   3.336   5.005   7.036 -1.4545 -1.5257 -1.0367
 3444SOL     H236532   3.392   5.011   6.895  0.8472  2.0172 -0.0261
 3445SOL    OH236533   5.317   5.325   6.991  0.0798 -0.0841  0.0751
 3445SOL     H136534   5.391   5.364   7.038 -0.6416  1.5288 -0.0835
 3445SOL     H236535   5.314   5.373   6.908 -0.7685 -0.5609 -0.1739
 3446SOL    OH236536   5.728   7.685   0.078 -0.2201 -0.3778  0.3762
 3446SOL     H136537   5.799   7.694   0.142 -0.5587 -0.0541  0.7096
 3446SOL     H236538   5.708   7.592   0.077 -1.6484 -0.1386  2.3261
 3447SOL    OH236539   3.916   6.379   0.043  0.0937  0.2403  0.2218
 3447SOL     H136540   3.961   6.410  -0.035 -0.5198 -0.4614 -0.4270
 3447SOL     H236541   3.881   6.458   0.084 -1.1954  0.4601 -1.2379
 3448SOL    OH236542   7.747   7.794   2.344  0.3287 -0.5960  0.0248
 3448SOL     H136543   7.751   7.699   2.359  0.6400 -0.3825  1.3415
 3448SOL     H236544   7.655   7.816   2.355  0.5294 -0.4685  1.5103
 3449SOL    OH236545   6.051   2.294   7.124 -0.2907  0.3608 -0.1739
 3449SOL     H136546   5.963   2.304   7.159 -0.5439 -0.9158 -0.4199
 3449SOL     H236547   6.097   2.242   7.189  0.5020  1.5970  0.2836
 3450SOL    OH236548   3.327   5.297   6.672  0.0586 -0.2555 -0.6441
 3450SOL     H136549   3.276   5.304   6.592  0.5281  2.7527 -0.7437
 3450SOL     H236550   3.299   5.215   6.712 -2.2045 -0.4165 -2.4862
 3451SOL    OH236551   4.691   4.640   1.335  0.0208 -0.0677  0.0087
 3451SOL     H136552   4.732   4.665   1.252  0.0775  0.3225  0.1530
 3451SOL     H236553   4.763   4.633   1.397 -0.1483  0.8194  0.3121
 3452SOL    OH236554   5.391   0.029   1.855  0.3912  0.6890  0.4995
 3452SOL     H136555   5.484   0.034   1.877  1.0004  0.3573 -1.8828
 3452SOL     H236556   5.386   0.057   1.764 -1.6260 -0.8494  0.0992
 3453SOL    OH236557   3.763   5.936   0.373  0.5649 -0.4447  0.7382
 3453SOL     H136558   3.787   5.996   0.301 -0.5003  0.0355  0.7708
 3453SOL     H236559   3.834   5.871   0.374  1.2641  0.2847  0.0967
 3454SOL    OH236560   5.192   2.166   1.095  0.4065 -0.3411  0.2959
 3454SOL     H136561   5.111   2.141   1.140 -0.0771 -0.0920 -0.4235
 3454SOL     H236562   5.232   2.083   1.071  1.2825 -0.5074  2.2418
 3455SOL    OH236563   3.188   6.475   7.118 -0.1727 -0.3611 -0.2760
 3455SOL     H136564   3.281   6.494   7.127 -0.4705  1.8784 -1.4649
 3455SOL     H236565   3.167   6.501   7.028 -2.4971  1.7673  0.8019
 3456SOL    OH236566   2.252   6.849   8.015 -0.4230  0.0491  0.1088
 3456SOL     H136567   2.218   6.896   7.939  2.5440  0.5678 -0.9420
 3456SOL     H236568   2.245   6.757   7.992  1.5327  0.2318 -1.2928
 3457SOL    OH236569   0.827   1.324   0.383 -0.2071 -0.5689 -0.6615
 3457SOL     H136570   0.848   1.397   0.325 -0.1760 -1.4777 -1.8220
 3457SOL     H236571   0.746   1.350   0.427  0.1712  0.4460 -0.5753
 3458SOL    OH236572   5.604   3.246   1.336  0.3262 -0.3903  0.5309
 3458SOL     H136573   5.563   3.333   1.337 -0.9636 -0.9434 -0.8780
 3458SOL     H236574   5.697   3.263   1.348  0.0046  1.1308  1.0104
 3459SOL    OH236575   5.797   6.615   1.180 -0.0532 -0.6036  0.1249
 3459SOL     H136576   5.851   6.691   1.203 -0.5455  0.0971 -0.9674
 3459SOL     H236577   5.767   6.581   1.264  2.9106 -1.6614  0.8111
 3460SOL    OH236578   6.751   6.606   0.768 -0.2779 -0.6608  0.0385
 3460SOL     H136579   6.803   6.549   0.712 -0.5094  0.0983 -0.9733
 3460SOL     H236580   6.815   6.651   0.824 -0.0059 -1.0648  0.0508
 3461SOL    OH236581   4.108   3.114   7.038 -0.0495 -0.6246  0.0902
 3461SOL     H136582   4.066   3.077   7.116  0.9917 -0.1552  0.8966
 3461SOL     H236583   4.182   3.056   7.020  0.7921  0.2911  0.5557
 3462SOL    OH236584   5.990   2.239   0.347  0.2981  0.4754 -0.0093
 3462SOL     H136585   5.940   2.306   0.393 -0.9120  0.0177 -0.6388
 3462SOL     H236586   6.023   2.283   0.268  3.4600  1.6292  1.8635
 3463SOL    OH236587   4.540   5.165   7.104  0.2608  0.6688 -0.5404
 3463SOL     H136588   4.461   5.188   7.055 -0.3819  0.8815  0.5863
 3463SOL     H236589   4.600   5.238   7.088 -0.1407  0.9927 -0.5884
 3464SOL    OH236590   0.221   7.556   8.220 -0.4662  0.2358 -0.0491
 3464SOL     H136591   0.289   7.491   8.236  1.0175  1.3900 -1.4911
 3464SOL     H236592   0.214   7.606   8.301  1.8410  1.3954 -0.5371
 3465SOL    OH236593   0.908   1.201   2.569 -0.5337  0.5527 -0.0757
 3465SOL     H136594   0.850   1.168   2.501  0.0210  0.5346 -0.5474
 3465SOL     H236595   0.850   1.229   2.640 -1.0258 -1.4779  0.3667
 3466SOL    OH236596   3.493   5.961   7.501  0.7032  0.5697  0.3977
 3466SOL     H136597   3.531   5.904   7.567 -0.8092 -0.7437  0.1832
 3466SOL     H236598   3.416   5.999   7.544 -0.9446 -1.1764 -0.9215
 3467SOL    OH236599   6.953   3.956   8.190 -0.7150 -0.0197 -0.1205
 3467SOL     H136600   6.940   4.036   8.139  1.2543  0.0364 -0.5757
 3467SOL     H236601   7.001   3.985   8.268  0.0090 -0.7384 -0.2905
 3468SOL    OH236602   5.790   7.429   7.730 -0.0955 -0.4082 -0.5289
 3468SOL     H136603   5.811   7.509   7.779  1.3468 -1.5671  0.7813
 3468SOL     H236604   5.867   7.373   7.741 -1.2856 -2.1822 -1.0189
 3469SOL    OH236605   5.212   2.762   0.562 -0.6873 -0.7430  0.0505
 3469SOL     H136606   5.133   2.816   0.571 -2.0169 -2.7613  0.7995
 3469SOL     H236607   5.271   2.796   0.630 -1.0298  0.5458 -0.2776
 3470SOL    OH236608   6.354   0.174   7.037  0.1289  0.1239  0.0034
 3470SOL     H136609   6.305   0.120   6.975 -1.6533 -0.0934  1.5754
 3470SOL     H236610   6.372   0.116   7.110  0.6011  0.9121  0.5170
 3471SOL    OH236611   1.603   6.144   7.171 -0.9430 -0.1969  0.5403
 3471SOL     H136612   1.630   6.208   7.105  0.7222 -1.1482  0.2498
 3471SOL     H236613   1.514   6.120   7.147  0.0029 -1.3320 -2.0542
 3472SOL    OH236614   7.368   1.378   1.911  0.1455  0.4061 -0.0274
 3472SOL     H136615   7.347   1.287   1.936  0.9513  0.3693  0.5274
 3472SOL     H236616   7.284   1.423   1.915  0.0131  0.0644  1.3619
 3473SOL    OH236617   1.667   4.438   2.231 -0.1947  0.6559  0.0798
 3473SOL     H136618   1.732   4.401   2.291 -0.1440  0.9097  0.1818
 3473SOL     H236619   1.619   4.502   2.284  0.2713  1.3451 -0.3142
 3474SOL    OH236620   6.384   5.318   1.728 -1.0251 -0.0827  0.1794
 3474SOL     H136621   6.343   5.399   1.758 -2.5126 -1.3152  1.5463
 3474SOL     H236622   6.311   5.266   1.695 -0.1858 -1.2473  0.1608
 3475SOL    OH236623   5.629   7.471   0.783  0.2348 -0.2094  0.3030
 3475SOL     H136624   5.657   7.381   0.765 -1.1687 -0.1655 -2.2538
 3475SOL     H236625   5.698   7.525   0.745  0.8253 -0.1876  1.3930
 3476SOL    OH236626   0.577   4.132   7.139 -0.3519 -0.3985  0.5402
 3476SOL     H136627   0.509   4.132   7.206  0.4178 -0.3548  1.3290
 3476SOL     H236628   0.603   4.041   7.130  1.4999 -0.0892  2.3283
 3477SOL    OH236629   7.318   4.401   0.897  0.0648  0.6494  0.6889
 3477SOL     H136630   7.240   4.432   0.942  1.2009  1.7170  1.9509
 3477SOL     H236631   7.330   4.311   0.929 -0.0619  0.8392  1.2728
 3478SOL    OH236632   0.335   7.330   0.337 -0.1715 -0.1217 -0.1757
 3478SOL     H136633   0.392   7.364   0.407  0.8799 -2.9657  0.4189
 3478SOL     H236634   0.249   7.323   0.378  0.0861 -0.2422  0.3571
 3479SOL    OH236635   5.571   5.545   0.633  0.5966  0.2750  0.8310
 3479SOL     H136636   5.553   5.604   0.559  1.5644 -0.3516  0.0993
 3479SOL     H236637   5.485   5.512   0.658 -0.0425  2.4531  1.6315
 3480SOL    OH236638   4.851   7.514   7.850 -0.5969  0.4023 -0.3328
 3480SOL     H136639   4.790   7.575   7.893 -0.1400  0.0047  0.9127
 3480SOL     H236640   4.892   7.466   7.923  1.8554  1.2710 -1.1005
 3481SOL    OH236641   0.182   0.458   7.795 -0.7435 -0.1121  0.2362
 3481SOL     H136642   0.150   0.514   7.724  1.3437 -0.4111 -0.9647
 3481SOL     H236643   0.103   0.431   7.841 -2.0592  0.9044 -1.3662
 3482SOL    OH236644   2.316   7.818   2.156  0.5341  0.1374 -0.5217
 3482SOL     H136645   2.316   7.899   2.105  0.4422  1.2870  1.2901
 3482SOL     H236646   2.228   7.813   2.193  0.7676 -0.4112 -0.0330
 3483SOL    OH236647   5.052   5.016   7.742 -0.2926  1.2289 -0.0678
 3483SOL     H136648   5.008   5.079   7.684 -0.2403  0.4283 -0.9878
 3483SOL     H236649   5.129   5.062   7.773 -0.2584  1.6282 -0.7345
 3484SOL    OH236650   5.613   7.609   1.216 -0.1606 -0.2444  0.1907
 3484SOL     H136651   5.573   7.626   1.302  1.0705 -2.6126  1.2634
 3484SOL     H236652   5.693   7.662   1.216  0.3000 -0.9246  0.8912
 3485SOL    OH236653   7.688   4.977   7.637 -0.1528 -0.2272 -0.1895
 3485SOL     H136654   7.615   5.021   7.595  0.6835  0.9266 -0.4513
 3485SOL     H236655   7.715   5.035   7.708 -1.4961 -2.1312  1.9179
 3486SOL    OH236656   1.304   7.965   0.279 -0.1752 -0.4271 -0.2436
 3486SOL     H136657   1.389   8.006   0.295  0.3324 -1.9712  1.1438
 3486SOL     H236658   1.325   7.882   0.237 -0.8493 -1.8068  2.0743
 3487SOL    OH236659   7.110   7.506   8.006 -0.0099  0.2669 -0.2533
 3487SOL     H136660   7.088   7.428   8.058 -0.3268  1.7056  1.8589
 3487SOL     H236661   7.202   7.494   7.983 -0.3188 -1.1899 -0.8180
 3488SOL    OH236662   0.293   1.841   7.474 -0.1278  0.2796  0.1689
 3488SOL     H136663   0.274   1.890   7.394  0.4981 -1.4822 -1.1115
 3488SOL     H236664   0.311   1.752   7.443 -0.0921 -0.4839  2.3040
 3489SOL    OH236665   2.683   4.554   0.141 -0.3755  0.8129 -0.0127
 3489SOL     H136666   2.635   4.619   0.090 -0.5020  1.6353  1.1382
 3489SOL     H236667   2.764   4.598   0.167 -0.1792  0.3105  0.2451
 3490SOL    OH236668   1.060   2.609   1.576 -0.0200 -0.1754  0.1805
 3490SOL     H136669   1.013   2.553   1.515  1.2920 -2.0742  0.8456
 3490SOL     H236670   1.144   2.564   1.589  0.6437  1.4160  1.5454
 3491SOL    OH236671   2.015   5.259   0.895 -0.3881 -0.7170 -0.1100
 3491SOL     H136672   2.061   5.229   0.817 -1.7175 -0.0375 -1.1958
 3491SOL     H236673   2.067   5.333   0.927  0.9910 -1.9581  0.5507
 3492SOL    OH236674   6.346   6.942   7.590 -0.5320  0.0922  0.2162
 3492SOL     H136675   6.362   7.025   7.634  0.2117  0.2177 -0.2811
 3492SOL     H236676   6.298   6.965   7.510  0.2516  0.1120 -0.2502
 3493SOL    OH236677   3.750   1.719   2.254  0.3810  0.0614 -0.8659
 3493SOL     H136678   3.673   1.759   2.214  1.1260  1.9854 -0.4182
 3493SOL     H236679   3.737   1.732   2.348 -0.1107 -2.1552 -0.5898
 3494SOL    OH236680   0.105   3.310   7.972  0.5696  0.1896 -0.4123
 3494SOL     H136681   0.073   3.244   8.033 -4.9619  2.2575 -0.7337
 3494SOL     H236682   0.172   3.358   8.020  1.5470 -2.8320  1.3379
 3495SOL    OH236683   0.346   7.032   1.503 -0.1558 -0.0694 -0.0225
 3495SOL     H136684   0.287   6.973   1.550 -0.9686  0.1184 -0.7932
 3495SOL     H236685   0.305   7.118   1.511  0.6685  0.2838  0.5078
 3496SOL    OH236686   2.450   7.156   6.309 -0.3484 -0.0287  0.3138
 3496SOL     H136687   2.426   7.207   6.231 -1.7737  1.5718  1.7571
 3496SOL     H236688   2.458   7.066   6.277  1.4477  0.9235 -2.1375
 3497SOL    OH236689   2.551   7.317   0.365 -0.2776  0.4066  0.4331
 3497SOL     H136690   2.512   7.396   0.402  0.0683  0.8053 -0.0419
 3497SOL     H236691   2.477   7.261   0.344 -0.5591  0.8580  0.2159
 3498SOL    OH236692   7.754   0.666   0.283  0.1400  0.7829 -0.1041
 3498SOL     H136693   7.710   0.747   0.306  0.4687  0.6896  0.8633
 3498SOL     H236694   7.806   0.643   0.360 -1.4215 -1.3509  0.3536
 3499SOL    OH236695   5.377   7.841   8.107 -0.1753 -0.4913  0.1021
 3499SOL     H136696   5.298   7.877   8.067  1.0092  1.2164 -0.7573
 3499SOL     H236697   5.393   7.897   8.183  0.9008 -0.0644 -0.4373
 3500SOL    OH236698   2.162   4.430   0.532 -0.1449  0.7267  0.0910
 3500SOL     H136699   2.086   4.416   0.588  0.1667 -1.6630 -0.0004
 3500SOL     H236700   2.224   4.477   0.587 -0.9514  0.9538  0.8095
 3501SOL    OH236701   6.831   1.574   6.885  0.8907  0.8142 -1.0235
 3501SOL     H136702   6.795   1.645   6.938  0.6336  0.0991 -0.2411
 3501SOL     H236703   6.922   1.600   6.870  1.3284  0.4050  0.8477
 3502SOL    OH236704   6.668   1.858   7.669 -0.3502  0.1309 -0.1180
 3502SOL     H136705   6.575   1.851   7.687 -0.3842  1.7863  0.4404
 3502SOL     H236706   6.701   1.768   7.674 -1.6613 -0.2862  1.0329
 3503SOL    OH236707   6.466   5.186   2.254 -0.0009  0.5085 -0.0933
 3503SOL     H136708   6.485   5.260   2.311  0.6693  0.1305  0.1757
 3503SOL     H236709   6.475   5.221   2.165  1.7222  0.3962  0.0319
 3504SOL    OH236710   1.768   4.439   0.441  0.3888  0.1639  0.0672
 3504SOL     H136711   1.768   4.348   0.472  1.2859 -0.3855 -1.4904
 3504SOL     H236712   1.847   4.446   0.388 -0.5434  1.3879 -1.1913
 3505SOL    OH236713   3.832   5.966   7.224  0.0376  0.1642  0.5595
 3505SOL     H136714   3.825   5.871   7.214 -0.3319  0.1711  0.7705
 3505SOL     H236715   3.920   5.979   7.261  0.7494  0.0267 -1.0377
 3506SOL    OH236716   3.394   7.676   7.658  0.1480 -0.3554 -0.3331
 3506SOL     H136717   3.379   7.600   7.715 -0.4775  0.7109  0.9303
 3506SOL     H236718   3.329   7.667   7.589  0.1884 -1.0681 -0.2873
 3507SOL    OH236719   1.585   4.522   7.027  0.4733 -0.9223  0.3390
 3507SOL     H136720   1.585   4.609   7.067 -1.5919 -0.2569 -1.0381
 3507SOL     H236721   1.675   4.510   6.996  0.4266  1.3301 -0.7318
 3508SOL    OH236722   2.309   6.558   6.665 -0.0633 -0.5900 -0.3049
 3508SOL     H136723   2.280   6.608   6.741 -0.3816 -0.3988 -0.5491
 3508SOL     H236724   2.316   6.624   6.595 -0.0391 -0.8110 -0.5109
 3509SOL    OH236725   0.131   3.594   1.391  0.0934 -0.5278  0.4165
 3509SOL     H136726   0.169   3.641   1.466  0.8647 -0.6805  0.1180
 3509SOL     H236727   0.202   3.589   1.327 -0.1858 -1.5312  0.1874
 3510SOL    OH236728   5.818   6.380   7.200 -0.6024  0.7669 -0.1488
 3510SOL     H136729   5.767   6.301   7.182  1.3178 -0.4170 -0.6107
 3510SOL     H236730   5.811   6.393   7.294  1.8863 -2.0438  0.5234
 3511SOL    OH236731   6.223   7.104   1.640 -0.2628 -0.2693  0.5085
 3511SOL     H136732   6.194   7.098   1.731  0.3444  0.4437  0.7518
 3511SOL     H236733   6.167   7.170   1.601 -0.4624 -0.5092  0.3898
 3512SOL    OH236734   0.895   0.561   1.271  0.1525  0.3609 -0.3365
 3512SOL     H136735   0.960   0.492   1.283  0.4276  0.5647 -0.6401
 3512SOL     H236736   0.939   0.626   1.216 -0.3664  0.4212 -0.6866
 3513SOL    OH236737   4.475   3.224   1.454 -0.0418  0.4891 -0.0440
 3513SOL     H136738   4.452   3.202   1.544 -1.4547  0.4716 -0.3935
 3513SOL     H236739   4.408   3.287   1.427  0.9131  1.1956 -0.7778
 3514SOL    OH236740   0.846   6.686   7.399  0.3560  0.0097 -0.4558
 3514SOL     H136741   0.879   6.697   7.310  1.7643 -0.6992 -0.0259
 3514SOL     H236742   0.820   6.594   7.403 -0.5745  0.2642 -0.4081
 3515SOL    OH236743   7.734   7.770   0.755 -0.3187  0.2602  0.3288
 3515SOL     H136744   7.671   7.802   0.690 -0.6004  0.3927  0.6625
 3515SOL     H236745   7.795   7.716   0.705  0.0815  1.2152 -0.2156
 3516SOL    OH236746   4.993   7.840   7.806 -0.2042 -0.1082 -0.0951
 3516SOL     H136747   4.962   7.767   7.752  0.1147  0.6420 -1.3254
 3516SOL     H236748   4.918   7.866   7.858 -0.9158 -0.0094 -1.1476
 3517SOL    OH236749   2.358   4.598   7.775 -0.3529 -0.1974 -0.0770
 3517SOL     H136750   2.379   4.522   7.829 -0.4506 -2.7643 -3.4371
 3517SOL     H236751   2.264   4.592   7.761 -1.0415  2.8404  2.8150
 3518SOL    OH236752   6.464   6.133   6.483 -0.4262 -0.0886  0.4397
 3518SOL     H136753   6.491   6.067   6.547 -0.9472  0.0671  0.8207
 3518SOL     H236754   6.423   6.202   6.535  0.1057  0.5414  0.0444
 3519SOL    OH236755   4.533   2.172   0.973 -0.2162 -0.3352  0.7594
 3519SOL     H136756   4.534   2.103   0.907 -0.0937 -0.4456  0.8777
 3519SOL     H236757   4.594   2.142   1.040 -1.1968 -0.7503  1.4632
 3520SOL    OH236758   0.133   7.224   5.561 -0.1952 -0.2369  0.0865
 3520SOL     H136759   0.149   7.146   5.508  0.6584  0.4048 -0.6241
 3520SOL     H236760   0.149   7.297   5.501 -0.6805  0.4831  0.8279
 3521SOL    OH236761   3.280   3.882   0.780 -0.1152  0.1839 -0.3836
 3521SOL     H136762   3.207   3.845   0.731  0.9435  0.3202 -2.1192
 3521SOL     H236763   3.334   3.806   0.803 -0.7176  0.0979  0.7747
 3522SOL    OH236764   4.114   6.926   2.140  0.1054 -0.0557  0.6188
 3522SOL     H136765   4.026   6.923   2.179 -1.1457  1.4661 -1.9217
 3522SOL     H236766   4.161   6.991   2.193 -0.3782 -0.6538  1.8170
 3523SOL    OH236767   5.860   0.698   5.982 -0.1002  0.1420  0.1387
 3523SOL     H136768   5.775   0.671   6.018 -0.5484 -1.1538 -1.8216
 3523SOL     H236769   5.854   0.793   5.975 -0.5685  0.2743  2.0334
 3524SOL    OH236770   7.407   6.005   7.003 -0.1446  0.1882 -0.6700
 3524SOL     H136771   7.369   6.058   6.933  0.8169  0.3358 -1.0868
 3524SOL     H236772   7.452   5.933   6.958 -0.3724 -0.2786 -0.1609
 3525SOL    OH236773   4.611   3.783   6.468  0.3642  0.4732  0.0595
 3525SOL     H136774   4.693   3.828   6.484  0.0202  0.5168  1.8083
 3525SOL     H236775   4.554   3.809   6.541 -0.3831 -1.4588  0.2028
 3526SOL    OH236776   1.662   4.491   6.198  0.1797  0.6567 -0.5665
 3526SOL     H136777   1.738   4.450   6.240  0.5587  0.1656 -1.7098
 3526SOL     H236778   1.660   4.453   6.110 -1.7508  0.2358 -0.3463
 3527SOL    OH236779   2.158   5.550   5.631 -0.1985 -0.3404 -0.2056
 3527SOL     H136780   2.203   5.581   5.553 -0.2817  0.6095  0.1148
 3527SOL     H236781   2.072   5.522   5.600  0.1270 -0.8982 -0.6042
 3528SOL    OH236782   1.550   7.629   6.192 -0.8947 -0.0567  0.5823
 3528SOL     H136783   1.491   7.616   6.118  2.6697 -0.2528 -2.2959
 3528SOL     H236784   1.564   7.724   6.196 -0.0649 -0.1628  0.1966
 3529SOL    OH236785   4.810   1.383   6.976  0.1420 -0.4670 -0.1280
 3529SOL     H136786   4.889   1.361   7.024  0.8322 -0.1469 -1.0925
 3529SOL     H236787   4.747   1.411   7.042  1.0381 -0.1408  0.5819
 3530SOL    OH236788   5.209   2.371   7.589  0.1647  0.0260 -0.8395
 3530SOL     H136789   5.300   2.351   7.565  0.7050  0.0172  1.1345
 3530SOL     H236790   5.179   2.293   7.636 -0.3245  0.6664 -0.0677
 3531SOL    OH236791   0.039   2.758   7.374  0.7144  0.6416 -0.0439
 3531SOL     H136792  -0.003   2.833   7.331 -1.0448 -0.7881 -0.8791
 3531SOL     H236793  -0.032   2.713   7.418  1.7100 -0.7547  0.1590
 3532SOL    OH236794   6.825   0.761   7.465 -0.2123 -0.2625 -0.1674
 3532SOL     H136795   6.894   0.827   7.473  1.3851 -1.9070 -0.2342
 3532SOL     H236796   6.759   0.802   7.408 -0.0635  1.9258  1.1581
 3533SOL    OH236797   2.828   1.724   7.461 -0.2446  0.2659 -0.4323
 3533SOL     H136798   2.878   1.694   7.536  1.4480  0.0517 -1.6277
 3533SOL     H236799   2.808   1.645   7.412 -2.3448  0.2694  0.3557
 3534SOL    OH236800   0.238   3.276   1.233  0.1155  0.1206 -0.3228
 3534SOL     H136801   0.315   3.244   1.281  1.1065  1.0308 -1.2865
 3534SOL     H236802   0.265   3.361   1.198 -1.6008  0.8212 -0.0051
 3535SOL    OH236803   4.600   1.462   6.768 -0.6929 -0.2350  0.4086
 3535SOL     H136804   4.636   1.506   6.692 -1.2527 -0.7078 -0.1417
 3535SOL     H236805   4.665   1.474   6.837 -0.8894  1.5330  0.2993
 3536SOL    OH236806   4.817   4.828   6.894 -0.5682  0.2725 -0.2351
 3536SOL     H136807   4.887   4.784   6.943  0.7070  1.2306 -1.1738
 3536SOL     H236808   4.736   4.791   6.929  0.4754 -2.9617 -1.1466
 3537SOL    OH236809   3.541   0.608   8.122 -0.4399  0.3864  0.6935
 3537SOL     H136810   3.493   0.681   8.084 -1.5759 -1.5340 -1.7053
 3537SOL     H236811   3.614   0.593   8.061 -0.4166 -0.6747  0.9595
 3538SOL    OH236812   5.593   4.673   7.020  0.4018 -0.5263 -0.1671
 3538SOL     H136813   5.620   4.687   6.930  0.6537  0.3007  0.0315
 3538SOL     H236814   5.652   4.605   7.053  0.6030 -0.4993 -0.4814
 3539SOL    OH236815   6.547   4.388   1.922  0.5960 -0.1276  0.4020
 3539SOL     H136816   6.454   4.390   1.947  0.8351  0.0101  1.2887
 3539SOL     H236817   6.551   4.440   1.841 -0.1907 -0.6135  0.0451
 3540SOL    OH236818   1.446   0.029   0.631  0.2017  0.0905  0.4674
 3540SOL     H136819   1.537   0.054   0.644  0.7894 -0.6873 -1.9663
 3540SOL     H236820   1.403   0.110   0.603  0.6405 -0.0436 -0.6156
 3541SOL    OH236821   7.386   6.176   7.250 -0.1637  0.0210 -0.1366
 3541SOL     H136822   7.409   6.112   7.183  0.4079  1.4501 -1.3340
 3541SOL     H236823   7.318   6.230   7.209 -0.1518  0.6124  0.6190
 3542SOL    OH236824   3.876   6.695   6.755 -1.0016  0.3181  0.1227
 3542SOL     H136825   3.887   6.789   6.765 -1.3893  0.4252 -0.4574
 3542SOL     H236826   3.839   6.666   6.838 -0.8464  0.6685  0.3137
 3543SOL    OH236827   7.477   5.082   1.365  0.1942  0.2243 -0.1166
 3543SOL     H136828   7.527   5.001   1.363  0.2862  0.2626  0.5123
 3543SOL     H236829   7.403   5.066   1.308  1.0585  0.2532 -1.2546
 3544SOL    OH236830   0.473   7.553   0.487 -0.2832 -0.4074  0.5128
 3544SOL     H136831   0.490   7.522   0.576  0.6541  0.3813  0.6276
 3544SOL     H236832   0.556   7.538   0.440 -0.6729 -0.5337 -0.1431
 3545SOL    OH236833   7.016   1.982   0.154 -0.0255  0.1967  0.1731
 3545SOL     H136834   7.040   2.059   0.103 -0.7767  0.6354  0.4672
 3545SOL     H236835   7.065   1.911   0.115  0.6970  0.8339 -0.0886
 3546SOL    OH236836   7.059   1.608   1.006  0.2086  0.4867 -0.4668
 3546SOL     H136837   6.977   1.651   1.031 -0.7289 -0.8791 -1.1359
 3546SOL     H236838   7.124   1.678   1.008 -1.0925  1.7211 -0.5415
 3547SOL    OH236839   3.910   6.551   7.885  1.0684  0.1044 -0.0829
 3547SOL     H136840   3.957   6.549   7.801  2.1874 -0.2561  0.5506
 3547SOL     H236841   3.976   6.528   7.950 -0.3300 -1.8738  0.6749
 3548SOL    OH236842   2.470   6.802   0.436 -0.4337 -0.2098  0.5540
 3548SOL     H136843   2.501   6.876   0.488 -0.3468 -0.4813  0.8859
 3548SOL     H236844   2.550   6.755   0.413 -0.2155  1.1951 -1.7951
 3549SOL    OH236845   2.799   1.578  -0.005  0.0902  0.0416 -0.1855
 3549SOL     H136846   2.876   1.534   0.033 -0.7614 -0.8382  0.5319
 3549SOL     H236847   2.741   1.592   0.069 -0.8555 -0.1554 -0.8852
 3550SOL    OH236848   7.316   4.699   7.895  0.2096 -0.3169  0.1685
 3550SOL     H136849   7.328   4.772   7.835 -0.4614  0.8502  1.4200
 3550SOL     H236850   7.395   4.698   7.948  1.4027 -2.1960 -1.5841
 3551SOL    OH236851   3.906   0.910   5.814 -0.4732  0.2319 -0.2992
 3551SOL     H136852   3.997   0.933   5.796 -0.7879  0.7954 -1.2017
 3551SOL     H236853   3.902   0.815   5.805  0.6125 -0.1174  2.4422
 3552SOL    OH236854   5.830   2.322   0.780  0.5904  0.6075  0.3689
 3552SOL     H136855   5.736   2.338   0.784  0.7956  1.5128  1.4973
 3552SOL     H236856   5.837   2.226   0.783 -0.2931  0.5290  0.1823
 3553SOL    OH236857   6.413   3.479   6.120  0.5155 -0.0738 -0.6501
 3553SOL     H136858   6.391   3.387   6.135  2.4144 -0.2972  0.9176
 3553SOL     H236859   6.480   3.477   6.052 -0.3967  0.2704 -1.5844
 3554SOL    OH236860   2.455   6.928   5.562 -0.4790 -0.2836  0.2448
 3554SOL     H136861   2.379   6.911   5.507  1.9498  0.1440 -3.4199
 3554SOL     H236862   2.482   7.017   5.539  2.3992 -1.2076 -0.1725
 3555SOL    OH236863   2.146   0.130   7.972 -0.1637 -0.6080  0.1604
 3555SOL     H136864   2.070   0.177   8.005  0.9556  0.2764  1.5237
 3555SOL     H236865   2.203   0.119   8.048  1.4382 -0.5382 -1.0052
 3556SOL    OH236866   1.466   1.398   1.320 -0.1451 -0.7247  0.1050
 3556SOL     H136867   1.478   1.483   1.362 -1.7625  0.1446 -1.1189
 3556SOL     H236868   1.380   1.368   1.351 -0.5815 -0.8678 -1.2170
 3557SOL    OH236869   7.069   2.764   1.865  1.0258  0.5700 -0.0982
 3557SOL     H136870   7.064   2.669   1.854  0.5526  0.5435  0.3578
 3557SOL     H236871   7.070   2.798   1.775 -0.9769  0.2369 -0.2808
 3558SOL    OH236872   3.789   1.523   0.438 -0.8930  0.0498 -0.6568
 3558SOL     H136873   3.764   1.549   0.526 -1.4310  2.1465 -1.4017
 3558SOL     H236874   3.707   1.501   0.395 -0.7164 -0.1652 -0.8832
 3559SOL    OH236875   1.510   5.446   7.498  0.0002  0.5750 -0.0794
 3559SOL     H136876   1.501   5.353   7.477 -0.8273  0.8171 -0.8041
 3559SOL     H236877   1.534   5.487   7.416  0.8990  0.9336  0.3583
 3560SOL    OH236878   1.881   2.506   7.496  0.0837  0.1418  0.0781
 3560SOL     H136879   1.855   2.591   7.459 -0.2223 -0.2941 -0.7159
 3560SOL     H236880   1.870   2.517   7.591 -1.0175  0.6280 -0.0960
 3561SOL    OH236881   6.418   7.133   0.764 -0.1017 -0.0868  0.3534
 3561SOL     H136882   6.349   7.121   0.829  0.9598  1.2059  1.7302
 3561SOL     H236883   6.385   7.200   0.705 -0.2011  0.2194  0.7591
 3562SOL    OH236884   0.273   2.578   1.629  0.3272  0.2457  0.4136
 3562SOL     H136885   0.199   2.618   1.674 -0.0723  1.9502 -1.7077
 3562SOL     H236886   0.235   2.534   1.553  1.4746  1.2618 -0.7800
 3563SOL    OH236887   1.918   2.872   6.613  0.0749 -0.2561  0.0735
 3563SOL     H136888   1.920   2.955   6.659 -2.0309 -0.2585  0.2268
 3563SOL     H236889   2.002   2.831   6.633  0.9293  1.6028  0.3860
 3564SOL    OH236890   4.903   4.285   7.395  0.4892 -0.0801  0.1848
 3564SOL     H136891   4.884   4.247   7.480 -0.2393 -0.0839  0.0258
 3564SOL     H236892   4.872   4.220   7.332 -2.3153  1.4336 -0.1062
 3565SOL    OH236893   4.393   7.906   0.130 -0.6530 -0.6532 -0.2355
 3565SOL     H136894   4.315   7.935   0.082  0.6334  1.5255 -1.0802
 3565SOL     H236895   4.462   7.904   0.064  0.6807  0.4168  1.0927
 3566SOL    OH236896   1.409   3.967   6.953 -0.1168  0.1281 -0.1663
 3566SOL     H136897   1.333   3.964   6.895  0.2477  1.2629 -0.7269
 3566SOL     H236898   1.382   3.921   7.032 -0.5558 -1.6266 -1.3209
 3567SOL    OH236899   5.985   5.090   1.374 -0.4216 -0.4419  0.2907
 3567SOL     H136900   5.899   5.059   1.402  0.0829 -1.3355  0.9188
 3567SOL     H236901   5.984   5.184   1.391 -1.2459 -0.4663  0.3755
 3568SOL    OH236902   2.249   2.334   0.246 -0.9853  0.0083 -0.0282
 3568SOL     H136903   2.269   2.427   0.241  1.5162 -0.4533  0.3732
 3568SOL     H236904   2.202   2.324   0.329  2.2632  0.4024  1.9564
 3569SOL    OH236905   0.489   4.389   1.569  0.3172 -0.4235  0.5462
 3569SOL     H136906   0.442   4.462   1.610  0.1074  0.1234 -0.6608
 3569SOL     H236907   0.521   4.425   1.486 -1.2862 -2.1977 -0.8897
 3570SOL    OH236908   1.071   4.078   0.694 -0.2946  0.5141 -0.2374
 3570SOL     H136909   1.141   4.132   0.730  0.7043 -2.0749  1.9220
 3570SOL     H236910   1.116   4.004   0.654 -1.6506  0.9683 -2.6895
 3571SOL    OH236911   0.945   4.916   6.918  0.1865 -0.1987 -0.2348
 3571SOL     H136912   0.976   4.845   6.862  0.5695 -0.2306  0.0161
 3571SOL     H236913   0.985   4.898   7.003  0.0152  0.1335 -0.0847
 3572SOL    OH236914   7.523   5.921   6.347  0.0822 -0.6822 -0.3301
 3572SOL     H136915   7.615   5.906   6.323 -0.0505 -1.2858 -0.4851
 3572SOL     H236916   7.511   5.867   6.425 -0.5694 -1.8834 -1.2323
 3573SOL    OH236917   0.230   3.123   1.759 -0.1226 -0.0859  0.0123
 3573SOL     H136918   0.251   3.067   1.833 -0.8647 -1.1973 -0.6122
 3573SOL     H236919   0.203   3.063   1.690 -0.8797  1.0377 -0.6807
 3574SOL    OH236920   7.559   7.292   1.905 -0.0203 -0.0637  0.1275
 3574SOL     H136921   7.579   7.382   1.931 -0.4214  0.4289 -1.2275
 3574SOL     H236922   7.630   7.240   1.942 -0.0088  0.7603  1.2772
 3575SOL    OH236923   3.306   1.564   1.374 -0.2784 -0.0333 -0.1400
 3575SOL     H136924   3.324   1.532   1.286 -0.2329 -1.0865  0.2389
 3575SOL     H236925   3.221   1.608   1.367  0.3888  1.1513 -1.0005
 3576SOL    OH236926   1.360   7.132   7.713 -0.8851  0.0842 -0.2622
 3576SOL     H136927   1.269   7.155   7.696 -0.1450  2.3664 -1.3224
 3576SOL     H236928   1.411   7.202   7.672  1.2923  0.5793  3.1060
 3577SOL    OH236929   7.330   6.171   1.572  0.4428 -0.2309 -0.0811
 3577SOL     H136930   7.353   6.213   1.655  0.9826 -0.1983 -0.2412
 3577SOL     H236931   7.263   6.108   1.594 -0.7654  1.0922  0.0927
 3578SOL    OH236932   3.551   1.507   1.646  0.1420 -0.3710  0.5742
 3578SOL     H136933   3.465   1.466   1.658 -0.8797  0.9165 -1.8863
 3578SOL     H236934   3.555   1.575   1.714 -1.2390  0.2244  0.0801
 3579SOL    OH236935   5.114   3.576   6.787  0.4421  0.3683  0.0422
 3579SOL     H136936   5.154   3.639   6.847  0.5754  0.4271 -0.1088
 3579SOL     H236937   5.144   3.491   6.818 -2.2238  0.1303  2.1781
 3580SOL    OH236938   1.630   4.282   8.040  0.4935  0.1106 -0.5583
 3580SOL     H136939   1.582   4.201   8.057  0.6823 -0.4618 -2.6343
 3580SOL     H236940   1.717   4.253   8.014  1.5572  1.1084  1.7965
 3581SOL    OH236941   3.893   0.687   0.849  0.0400 -0.4816 -0.0672
 3581SOL     H136942   3.908   0.634   0.927  0.8339 -1.0118 -0.5663
 3581SOL     H236943   3.974   0.679   0.799 -0.3885  0.0070 -0.8522
 3582SOL    OH236944   5.297   6.139   1.323 -0.0594  0.5923 -0.0010
 3582SOL     H136945   5.228   6.176   1.267 -1.5741 -0.6140  1.0462
 3582SOL     H236946   5.287   6.045   1.314  0.5610  0.4041  1.2411
 3583SOL    OH236947   0.772   5.971   0.007  0.1381 -0.6705  0.4069
 3583SOL     H136948   0.802   5.884  -0.022  1.0216 -0.2043 -0.0759
 3583SOL     H236949   0.794   5.974   0.100 -1.9643 -1.8520  0.9874
 3584SOL    OH236950   4.950   4.739   6.092 -0.6294  0.2791 -0.4192
 3584SOL     H136951   5.021   4.688   6.131 -0.5656  1.5529  1.1816
 3584SOL     H236952   4.970   4.741   5.998  0.8125 -0.3650 -0.1398
 3585SOL    OH236953   0.671   1.638   1.903  0.1130  0.0228  0.4024
 3585SOL     H136954   0.701   1.563   1.851  0.2178  0.7678 -0.6294
 3585SOL     H236955   0.747   1.664   1.954  0.9924  1.3051 -1.4904
 3586SOL    OH236956   2.626   7.259   6.859  0.0321  0.3090 -0.0247
 3586SOL     H136957   2.564   7.245   6.788  0.7768  1.5937 -0.9448
 3586SOL     H236958   2.712   7.253   6.818  0.4693  0.9793  0.7739
 3587SOL    OH236959   5.801   6.741   6.135  0.0279 -0.3950  0.0753
 3587SOL     H136960   5.736   6.694   6.083  1.3478 -2.1815  0.0017
 3587SOL     H236961   5.880   6.688   6.128  0.9403  0.7082  1.7986
 3588SOL    OH236962   7.924   2.708   6.905  0.1748  0.2604  0.2192
 3588SOL     H136963   8.007   2.718   6.859 -0.2403 -0.9536 -0.8285
 3588SOL     H236964   7.934   2.628   6.956 -1.0969 -1.0873 -1.5898
 3589SOL    OH236965   1.551   4.405   1.254  0.7017 -0.2649  0.6276
 3589SOL     H136966   1.568   4.450   1.337 -0.8767  2.5973 -0.5582
 3589SOL     H236967   1.456   4.392   1.253  0.8879 -1.6720 -0.0530
 3590SOL    OH236968   1.612   5.950   1.587  0.0888  0.1248 -0.1060
 3590SOL     H136969   1.626   5.861   1.555  4.4133  0.0484  1.5369
 3590SOL     H236970   1.643   6.006   1.517  2.2516  0.1332  0.8018
 3591SOL    OH236971   2.096   1.186   0.182 -0.4525  0.2419 -0.4866
 3591SOL     H136972   2.089   1.117   0.116 -2.6547 -1.7506  1.7216
 3591SOL     H236973   2.076   1.267   0.134  0.3082 -0.8727 -2.7261
 3592SOL    OH236974   4.437   2.766   0.547  0.4044 -0.2656 -0.0244
 3592SOL     H136975   4.411   2.832   0.483 -1.4709  0.2687  1.2366
 3592SOL     H236976   4.418   2.682   0.504  0.7607  0.0462 -0.8012
 3593SOL    OH236977   3.280   7.470   7.775 -0.0049 -0.2344  0.2399
 3593SOL     H136978   3.192   7.500   7.798  0.1795  1.0570 -0.6983
 3593SOL     H236979   3.281   7.378   7.803 -1.0167  0.2430  1.9527
 3594SOL    OH236980   7.036   3.489   1.289 -0.0349 -0.2946  0.4464
 3594SOL     H136981   7.059   3.568   1.240  1.3046 -0.3061  1.0251
 3594SOL     H236982   6.952   3.509   1.330 -0.0347  0.5602  0.0326
 3595SOL    OH236983   4.662   1.271   7.416  0.6323 -0.1978 -0.4354
 3595SOL     H136984   4.670   1.176   7.410 -1.0176 -0.4215  0.5107
 3595SOL     H236985   4.659   1.301   7.325 -1.8316 -1.3510 -0.7737
 3596SOL    OH236986   5.119   2.645   2.348  0.1665 -0.0016  0.5542
 3596SOL     H136987   5.050   2.587   2.381 -0.6006  0.5536 -0.0627
 3596SOL     H236988   5.084   2.679   2.266  0.4391  1.6779  1.1254
 3597SOL    OH236989   6.711   1.472   2.973  0.7110  0.2393 -0.1415
 3597SOL     H136990   6.786   1.430   2.931 -0.3229  0.1793 -1.9845
 3597SOL     H236991   6.650   1.400   2.991  0.1283  0.5795 -0.7363
 3598SOL    OH236992   6.131   5.506   6.481  0.5118 -0.9225  0.1609
 3598SOL     H136993   6.098   5.420   6.456  0.1229 -1.0451  1.0428
 3598SOL     H236994   6.183   5.536   6.407 -1.5594 -0.7469 -1.2468
 3599SOL    OH236995   5.555   4.475   3.215 -0.1802 -0.5197  0.4536
 3599SOL     H136996   5.509   4.549   3.175 -1.0757 -0.1230  2.1871
 3599SOL     H236997   5.503   4.399   3.192  0.2292 -0.5037 -0.5431
 3600SOL    OH236998   0.573   0.085   0.734  0.3817  0.1281 -0.2022
 3600SOL     H136999   0.633   0.155   0.709 -0.1020  0.7558  0.3916
 3600SOL     H237000   0.627   0.006   0.732  0.7201  0.3710 -1.7293
 3601SOL    OH237001   0.761   1.142   0.779 -0.0837  0.3875 -0.1516
 3601SOL     H137002   0.820   1.128   0.705  0.1538  1.7223 -0.2227
 3601SOL     H237003   0.754   1.237   0.787 -1.7269  0.2397  0.2668
 3602SOL    OH237004   5.405   1.916   2.433  0.5082 -0.3902  0.0688
 3602SOL     H137005   5.369   1.991   2.481 -0.5182  0.8942 -2.6152
 3602SOL     H237006   5.361   1.840   2.471 -0.4579  0.6114  0.9847
 3603SOL    OH237007   0.582   5.665   7.668  0.6160 -0.1972  0.1276
 3603SOL     H137008   0.558   5.615   7.590  1.1343 -0.6436  0.2525
 3603SOL     H237009   0.500   5.706   7.696  0.1050 -1.3021  0.2597
 3604SOL    OH237010   1.888   1.109   7.771  0.1458  0.2220 -0.1294
 3604SOL     H137011   1.896   1.097   7.866 -1.8890 -0.3529 -0.0074
 3604SOL     H237012   1.942   1.185   7.752  0.4003  0.4767  1.5270
 3605SOL    OH237013   7.237   2.431   7.367 -0.1927 -0.5903  0.1196
 3605SOL     H137014   7.314   2.460   7.416  0.2729 -1.5104 -0.0682
 3605SOL     H237015   7.260   2.344   7.335 -0.5062  0.0076 -1.7506
 3606SOL    OH237016   0.660   4.023   6.612  0.0190  0.1243  0.0993
 3606SOL     H137017   0.569   3.996   6.630  0.3236 -1.2223 -0.3336
 3606SOL     H237018   0.712   3.974   6.676  0.6418 -0.8589 -1.1291
 3607SOL    OH237019   3.006   1.332   1.302 -0.1795 -0.3174  0.3122
 3607SOL     H137020   2.955   1.408   1.330  1.1049  0.7861 -0.3010
 3607SOL     H237021   3.068   1.317   1.372 -2.1070 -2.4428  1.6459
 3608SOL    OH237022   4.814   6.988   6.405  0.2051 -0.5221  0.0917
 3608SOL     H137023   4.828   6.904   6.360  1.5113 -0.2679  0.0094
 3608SOL     H237024   4.814   7.053   6.335  1.8055 -0.1739  0.3970
 3609SOL    OH237025   6.243   4.617   1.757  0.6228  0.5210 -0.2024
 3609SOL     H137026   6.303   4.635   1.685  0.2437  0.1907 -0.6014
 3609SOL     H237027   6.156   4.621   1.718  0.4266  0.1664  0.1952
 3610SOL    OH237028   5.936   5.919   0.934 -0.0983 -0.0085  0.6469
 3610SOL     H137029   5.997   5.979   0.977 -0.5716  1.9867 -1.2977
 3610SOL     H237030   5.978   5.899   0.850 -0.2297 -1.9459  1.0300
 3611SOL    OH237031   7.222   2.773   6.902  0.3345 -0.0811 -0.0572
 3611SOL     H137032   7.313   2.772   6.872  0.1089  0.7645 -0.7663
 3611SOL     H237033   7.210   2.687   6.942  0.6800 -1.2233 -2.3001
 3612SOL    OH237034   2.488   5.811   0.457  1.0007  0.2900 -0.3287
 3612SOL     H137035   2.409   5.799   0.509  0.9105 -1.5782 -0.8598
 3612SOL     H237036   2.552   5.753   0.497  1.6842  0.7283 -0.7716
 3613SOL    OH237037   7.152   1.369   0.495  0.4331 -0.1622 -0.8485
 3613SOL     H137038   7.089   1.306   0.529  0.6293  0.7132  1.1765
 3613SOL     H237039   7.108   1.409   0.420 -1.1754  0.0085  0.1647
 3614SOL    OH237040   4.507   7.256   1.601  0.4374  0.1908 -0.1159
 3614SOL     H137041   4.445   7.230   1.670 -1.0635  2.1131 -0.6978
 3614SOL     H237042   4.581   7.196   1.612  0.0280  0.1491  2.8510
 3615SOL    OH237043   2.913   0.876   6.897 -0.0103 -0.1571 -0.1262
 3615SOL     H137044   2.984   0.875   6.961 -0.3626 -2.9821  0.2629
 3615SOL     H237045   2.836   0.902   6.948  0.1382 -0.2170  0.1318
 3616SOL    OH237046   6.274   4.643   0.421 -0.2523  0.5406  0.0837
 3616SOL     H137047   6.361   4.611   0.399  0.6682  2.2234  1.0980
 3616SOL     H237048   6.226   4.642   0.338  0.5588 -0.8991 -0.3836
 3617SOL    OH237049   2.546   2.406   8.113  0.0976  0.1778  0.3167
 3617SOL     H137050   2.478   2.457   8.157 -0.0385  0.4014 -0.1583
 3617SOL     H237051   2.623   2.414   8.170 -0.1414  0.2912  0.6219
 3618SOL    OH237052   2.298   5.301   6.678  0.2827  0.2572 -0.1209
 3618SOL     H137053   2.358   5.322   6.749  1.0316 -2.9938  0.2737
 3618SOL     H237054   2.354   5.287   6.601 -0.4131  2.4019 -1.0540
 3619SOL    OH237055   7.060   7.129   7.954  0.4398 -0.8929 -0.2063
 3619SOL     H137056   7.093   7.177   7.878 -1.0271 -0.5055 -0.6076
 3619SOL     H237057   7.138   7.089   7.993  1.3501 -0.1521 -1.2502
 3620SOL    OH237058   2.604   0.107   7.714  0.2351 -0.2646  0.5842
 3620SOL     H137059   2.535   0.068   7.660  0.7862  0.9198 -1.0431
 3620SOL     H237060   2.559   0.141   7.791 -1.3934  2.4773 -1.4809
 3621SOL    OH237061   6.091   0.640   0.935  0.2287  0.2140 -0.1329
 3621SOL     H137062   6.159   0.603   0.879 -0.1696 -3.0550  1.4012
 3621SOL     H237063   6.009   0.624   0.888  0.2801  1.3988 -0.6114
 3622SOL    OH237064   6.740   4.503   7.633  0.1947 -0.4101 -0.4802
 3622SOL     H137065   6.779   4.587   7.656  0.3784 -0.7264  0.3856
 3622SOL     H237066   6.780   4.480   7.549 -2.5318  2.0624 -2.5280
 3623SOL    OH237067   2.230   4.284   7.578 -0.2934 -0.0516  0.3992
 3623SOL     H137068   2.150   4.305   7.530  0.0896  0.6760  0.0680
 3623SOL     H237069   2.231   4.345   7.651  1.7283  2.3827 -1.5622
 3624SOL    OH237070   1.299   7.777   7.854  0.3861 -0.5686 -0.1096
 3624SOL     H137071   1.317   7.739   7.939 -0.2131  0.7731  0.6385
 3624SOL     H237072   1.205   7.799   7.857  1.2756  3.5317  0.5708
 3625SOL    OH237073   0.858   2.531   1.126 -0.6919 -0.1455  0.2827
 3625SOL     H137074   0.815   2.538   1.041  0.5471 -1.6589 -0.5012
 3625SOL     H237075   0.921   2.604   1.127 -0.7866 -0.0579 -0.0531
 3626SOL    OH237076   0.563   2.231   6.135 -0.3753  0.2276 -0.0201
 3626SOL     H137077   0.493   2.170   6.154 -0.5710 -0.0316 -1.5087
 3626SOL     H237078   0.620   2.185   6.073  0.2668  1.0092 -0.0328
 3627SOL    OH237079   2.173   2.655   2.744  0.6065  0.2293 -0.3020
 3627SOL     H137080   2.091   2.682   2.702  1.0790  1.6849 -0.2929
 3627SOL     H237081   2.211   2.591   2.683 -0.4062 -0.2692 -0.4248
 3628SOL    OH237082   2.128   2.784   1.163  0.0155  0.4442  0.2329
 3628SOL     H137083   2.204   2.799   1.108  1.5871 -1.4215  1.8211
 3628SOL     H237084   2.144   2.837   1.242 -0.7929  0.7970  0.1670
 3629SOL    OH237085   5.499   3.023   1.437  0.3076 -0.0453  0.3008
 3629SOL     H137086   5.544   3.105   1.418  1.8052 -0.1531  3.1627
 3629SOL     H237087   5.407   3.049   1.449  0.8117  1.2833  1.4640
 3630SOL    OH237088   5.956   1.639   1.578 -0.2411 -0.2802 -0.3725
 3630SOL     H137089   6.005   1.666   1.656 -1.3293 -1.9729  0.9393
 3630SOL     H237090   6.003   1.680   1.505  3.0356 -1.7038  0.8297
 3631SOL    OH237091   2.281   7.037   0.048  0.0980  0.4398  0.1754
 3631SOL     H137092   2.225   7.068  -0.023  1.5896  1.4677 -0.5871
 3631SOL     H237093   2.283   6.942   0.037 -0.0234  0.5541 -0.9221
 3632SOL    OH237094   3.587   3.579   7.185  0.3859 -0.4217  0.5113
 3632SOL     H137095   3.587   3.641   7.258 -1.0874 -0.7433  0.8060
 3632SOL     H237096   3.577   3.634   7.108 -0.9322 -0.2582  0.7732
 3633SOL    OH237097   5.983   6.693   0.227 -0.4269 -0.5081 -0.0760
 3633SOL     H137098   5.936   6.757   0.281  3.8886  1.6174  1.3926
 3633SOL     H237099   6.023   6.633   0.291 -0.6866 -2.0025 -1.2842
 3634SOL    OH237100   5.055   1.697   6.835 -0.0714 -0.0036 -0.0300
 3634SOL     H137101   5.040   1.757   6.908 -0.2047  0.7862 -0.6948
 3634SOL     H237102   5.114   1.744   6.777 -0.8063 -0.1913 -0.9426
 3635SOL    OH237103   3.751   2.776   0.584 -0.3994  0.6745  0.2815
 3635SOL     H137104   3.700   2.857   0.584 -1.6831 -0.1113 -0.9189
 3635SOL     H237105   3.687   2.707   0.568  0.8348 -0.4861  0.2278
 3636SOL    OH237106   6.988   3.929   1.243 -0.0645  0.1283  0.1111
 3636SOL     H137107   7.042   3.908   1.319 -0.1115 -2.1150 -0.4440
 3636SOL     H237108   6.914   3.978   1.279  1.2114  1.3288  1.1498
 3637SOL    OH237109   5.866   4.811   0.412  0.5594  0.3827 -0.5070
 3637SOL     H137110   5.806   4.762   0.356  0.3423  0.1128 -0.0429
 3637SOL     H237111   5.868   4.762   0.494  0.3565  1.1336 -0.0409
 3638SOL    OH237112   2.955   1.000   6.348 -0.2558  0.4182  0.1467
 3638SOL     H137113   2.902   0.973   6.423 -0.1765 -1.3885 -0.4081
 3638SOL     H237114   3.025   1.053   6.386 -0.4482 -0.1471  1.3116
 3639SOL    OH237115   2.838   0.907   0.581  0.4371 -0.1508 -0.4572
 3639SOL     H137116   2.810   0.824   0.540  0.7642  0.1759 -1.3594
 3639SOL     H237117   2.790   0.974   0.533 -0.9050  0.1059  1.2144
 3640SOL    OH237118   6.131   3.371   0.192 -0.7422  0.4498  0.6012
 3640SOL     H137119   6.119   3.341   0.283  0.4240 -2.0819 -0.0486
 3640SOL     H237120   6.047   3.353   0.150 -0.6064 -0.2722  0.6468
 3641SOL    OH237121   7.001   5.950   0.826  0.3670 -0.3189  0.1518
 3641SOL     H137122   7.029   6.032   0.868 -1.9535 -0.3911  1.8786
 3641SOL     H237123   6.959   5.979   0.745  2.3342 -0.0232 -0.8064
 3642SOL    OH237124   4.179   3.755   7.971  0.1140 -0.5119  0.0191
 3642SOL     H137125   4.241   3.716   7.909 -1.7747 -1.0275 -1.6026
 3642SOL     H237126   4.189   3.850   7.960 -0.5600 -0.6043 -1.4582
 3643SOL    OH237127   2.889   5.298   0.199 -0.2656 -0.3050  0.3989
 3643SOL     H137128   2.936   5.380   0.180  0.5121 -0.8460 -0.0197
 3643SOL     H237129   2.805   5.327   0.235  0.4030  0.6731  1.2057
 3644SOL    OH237130   6.877   7.831   6.998 -0.3090 -0.2268 -0.1998
 3644SOL     H137131   6.890   7.766   6.929 -1.5800 -0.1395 -0.5255
 3644SOL     H237132   6.958   7.882   6.998  0.4431 -1.4032 -0.3670
 3645SOL    OH237133   5.070   1.102   0.903  0.7835  0.0638  0.7433
 3645SOL     H137134   5.128   1.174   0.928  1.2484  0.6901 -2.0111
 3645SOL     H237135   4.984   1.142   0.895  0.2625 -0.5096  3.0459
 3646SOL    OH237136   5.099   5.741   0.377 -0.5385 -0.0446  0.5569
 3646SOL     H137137   5.098   5.804   0.306  1.8891 -1.7811 -1.1046
 3646SOL     H237138   5.030   5.678   0.354  0.4656 -0.7877 -0.4751
 3647SOL    OH237139   3.357   4.711   7.735  0.1058  0.0512 -0.0370
 3647SOL     H137140   3.269   4.721   7.699 -0.6125 -0.0900  1.6126
 3647SOL     H237141   3.377   4.797   7.774  0.4892 -0.0717  0.0419
 3648SOL    OH237142   4.065   1.210   7.185  0.0333  0.3806  0.3027
 3648SOL     H137143   4.068   1.247   7.273  0.1212 -0.5371  0.6975
 3648SOL     H237144   4.114   1.271   7.131 -0.5133  1.2506  0.7824
 3649SOL    OH237145   5.736   5.971   0.670 -0.3697  0.1919 -0.5208
 3649SOL     H137146   5.654   5.956   0.622 -0.3018 -1.6434 -0.1282
 3649SOL     H237147   5.789   5.894   0.650  0.9794  1.0176 -0.1743
 3650SOL    OH237148   3.696   4.870   7.798  0.2920 -0.2045  0.2206
 3650SOL     H137149   3.775   4.816   7.804  1.9072  2.0477 -0.3022
 3650SOL     H237150   3.727   4.956   7.773 -2.4202  0.5855 -0.6169
 3651SOL    OH237151   4.682   5.265   7.937  0.1664 -0.0858 -0.2345
 3651SOL     H137152   4.777   5.263   7.943  0.2019  2.2379  0.3971
 3651SOL     H237153   4.651   5.230   8.021  0.4704  0.4170  0.0857
 3652SOL    OH237154   4.813   5.850   7.750 -0.4773  0.2635  0.2351
 3652SOL     H137155   4.859   5.786   7.804 -0.6299  1.9233  2.4046
 3652SOL     H237156   4.835   5.934   7.789 -1.5802  1.4189 -1.5761
 3653SOL    OH237157   5.012   4.935   0.900 -0.2590 -0.3843 -0.2529
 3653SOL     H137158   4.922   4.966   0.888 -1.1019 -3.4585 -2.6485
 3653SOL     H237159   5.028   4.942   0.994 -3.2132 -0.2289  0.2808
 3654SOL    OH237160   1.128   1.116   6.698 -0.9641 -0.4899 -0.4781
 3654SOL     H137161   1.117   1.062   6.777  0.2451 -1.0257 -0.6589
 3654SOL     H237162   1.050   1.171   6.696 -1.0786 -0.5559  1.0353
 3655SOL    OH237163   0.729   6.985   6.524 -0.7192 -0.4504 -0.2750
 3655SOL     H137164   0.731   7.001   6.618  0.6413 -2.3352  0.0474
 3655SOL     H237165   0.637   6.997   6.499 -1.4307 -1.8122  1.6383
 3656SOL    OH237166   4.503   7.200   0.652 -0.4996  0.0682  0.1054
 3656SOL     H137167   4.577   7.176   0.596  1.0362 -1.1243  2.5318
 3656SOL     H237168   4.539   7.268   0.709 -0.9851 -1.1473  1.8892
 3657SOL    OH237169   7.381   2.846   0.372 -0.6691 -0.1140 -0.0902
 3657SOL     H137170   7.311   2.793   0.332 -0.8791  0.4234 -0.4386
 3657SOL     H237171   7.390   2.921   0.313  0.6904 -0.5414 -0.4300
 3658SOL    OH237172   7.378   5.760   2.511 -0.3227  0.1515  0.5117
 3658SOL     H137173   7.315   5.801   2.451  1.4099  0.3562 -1.2246
 3658SOL     H237174   7.405   5.831   2.569  0.1090  0.6628 -0.2986
 3659SOL    OH237175   5.023   0.323   2.389  0.2247 -0.0383  0.1542
 3659SOL     H137176   4.927   0.323   2.381  0.1515 -0.5423  0.9483
 3659SOL     H237177   5.051   0.250   2.333 -0.1685 -2.5252  3.0218
 3660SOL    OH237178   3.772   3.893   7.107  0.1636  0.6009  0.2515
 3660SOL     H137179   3.805   3.806   7.086 -1.7469 -0.2850  0.8235
 3660SOL     H237180   3.847   3.937   7.148  1.4366 -0.4216 -0.8994
 3661SOL    OH237181   4.885   3.042   2.602 -0.0966  0.3417  0.2753
 3661SOL     H137182   4.881   3.088   2.685  1.6234  0.7768  0.1377
 3661SOL     H237183   4.903   2.951   2.625 -1.5388  0.0896  0.4533
 3662SOL    OH237184   4.416   7.703   7.876  0.3303  0.0170  0.2168
 3662SOL     H137185   4.507   7.720   7.900 -0.4086  0.6732  2.7152
 3662SOL     H237186   4.406   7.743   7.790  2.1391  0.7624  0.3235
 3663SOL    OH237187   5.152   5.788   7.155 -0.1090 -0.7231 -0.4695
 3663SOL     H137188   5.088   5.849   7.191 -2.0784 -0.5962 -3.9441
 3663SOL     H237189   5.122   5.702   7.185 -1.3372 -0.5718 -1.2323
 3664SOL    OH237190   7.035   4.674   7.951 -0.4380 -0.9664 -0.2766
 3664SOL     H137191   6.990   4.713   7.875 -1.0151  3.5866  2.2120
 3664SOL     H237192   7.128   4.690   7.934 -0.7688  4.5071  1.9996
 3665SOL    OH237193   1.424   5.414   1.737  0.4369  0.2362 -0.0045
 3665SOL     H137194   1.355   5.481   1.737  0.6519  0.4937 -2.0942
 3665SOL     H237195   1.493   5.450   1.792 -0.2041  0.9426  0.3414
 3666SOL    OH237196   6.366   7.527   8.263  0.1131 -0.1847  0.1482
 3666SOL     H137197   6.424   7.453   8.284 -0.3341 -0.3771  0.7096
 3666SOL     H237198   6.312   7.495   8.191 -1.3490 -1.0720  1.6000
 3667SOL    OH237199   2.045   3.523   1.317 -1.0838  0.0843 -0.0883
 3667SOL     H137200   2.075   3.613   1.332 -0.5347 -0.1247  0.0761
 3667SOL     H237201   2.075   3.503   1.228  1.5722 -1.0300  0.9912
 3668SOL    OH237202   6.114   6.845   1.548  0.3218 -0.3368  0.1229
 3668SOL     H137203   6.151   6.933   1.555  1.6466 -0.8737 -0.0730
 3668SOL     H237204   6.190   6.788   1.539 -0.5177 -1.5433  0.6618
 3669SOL    OH237205   0.541   3.378   7.351 -0.0485  0.0252  1.0498
 3669SOL     H137206   0.505   3.390   7.438  2.3117 -0.8467  2.1954
 3669SOL     H237207   0.628   3.340   7.366  0.8077  0.7970 -1.6332
 3670SOL    OH237208   3.174   2.529   1.564 -0.5538 -0.4732 -0.1467
 3670SOL     H137209   3.091   2.565   1.595 -1.0328  0.2278 -2.1969
 3670SOL     H237210   3.236   2.602   1.570 -0.1597 -0.9013  1.0598
 3671SOL    OH237211   3.574   7.134   7.775 -0.6763  0.1360 -0.0967
 3671SOL     H137212   3.667   7.155   7.763 -0.4927 -0.5352  0.1281
 3671SOL     H237213   3.571   7.090   7.860 -1.0399 -0.8614 -0.6294
 3672SOL    OH237214   1.368   5.772   6.775  0.2014 -0.1228  0.6085
 3672SOL     H137215   1.412   5.714   6.837  0.3415 -1.0854 -0.3854
 3672SOL     H237216   1.304   5.716   6.731  1.5869  0.0300 -1.6570
 3673SOL    OH237217   0.495   7.193   0.790 -0.0528  0.2034  0.1954
 3673SOL     H137218   0.565   7.237   0.839 -0.0803  1.3574 -0.7960
 3673SOL     H237219   0.539   7.125   0.739  0.3045  0.7740 -0.2461
 3674SOL    OH237220   3.905   1.198   2.018 -0.3032  0.3111  0.0249
 3674SOL     H137221   3.856   1.279   2.031  1.0187  1.0776  0.4143
 3674SOL     H237222   3.940   1.206   1.929 -3.0357 -1.4385 -1.2581
 3675SOL    OH237223   3.903   4.621   0.707 -0.0591 -0.2388  0.2486
 3675SOL     H137224   3.990   4.583   0.717  0.0933 -0.2811 -1.1895
 3675SOL     H237225   3.846   4.565   0.761  0.6286 -0.8519  0.3454
 3676SOL    OH237226   2.835   5.271   7.718  1.1585 -0.2775  0.4937
 3676SOL     H137227   2.794   5.355   7.696  2.2118  0.3372  0.8633
 3676SOL     H237228   2.764   5.207   7.710  0.4761  0.5720 -0.3078
 3677SOL    OH237229   4.281   1.062   7.435 -0.4932 -0.2293  0.4424
 3677SOL     H137230   4.207   1.061   7.374 -0.3457  1.8031  0.2003
 3677SOL     H237231   4.322   1.147   7.422  4.1326 -2.5863 -2.0647
 3678SOL    OH237232  -0.003   2.911   2.017  0.0748  0.1490  0.1816
 3678SOL     H137233  -0.043   2.946   1.937  0.3144 -1.0539 -0.4751
 3678SOL     H237234   0.059   2.978   2.045  0.2936  0.3812 -0.8709
 3679SOL    OH237235   5.049   6.341   1.464  0.1321 -0.4129  0.0523
 3679SOL     H137236   5.045   6.399   1.388  1.3469 -0.2021  0.1472
 3679SOL     H237237   5.123   6.373   1.516 -1.3153  0.0894  1.8599
 3680SOL    OH237238   4.412   0.585   7.448 -0.5784 -0.0931  0.2641
 3680SOL     H137239   4.320   0.611   7.437 -1.0850 -1.3235  1.4610
 3680SOL     H237240   4.415   0.545   7.534  0.8355 -1.2169 -0.2940
 3681SOL    OH237241   7.020   4.467   0.745  0.2673 -0.6174  0.3324
 3681SOL     H137242   7.091   4.528   0.765 -1.1115  0.5858  1.7025
 3681SOL     H237243   7.013   4.468   0.649 -1.4858  3.5122  0.3835
 3682SOL    OH237244   5.086   0.598   0.791  0.3128 -0.6353 -0.1965
 3682SOL     H137245   5.014   0.652   0.759  0.4632 -0.3534 -0.0548
 3682SOL     H237246   5.050   0.509   0.791 -0.1334 -0.4563  0.1628
 3683SOL    OH237247   0.455   6.999   7.355  0.1890 -0.4687  0.2813
 3683SOL     H137248   0.441   6.904   7.350  1.4043 -0.6039 -0.6294
 3683SOL     H237249   0.467   7.027   7.265 -1.2917  0.7535  0.4309
 3684SOL    OH237250   7.584   4.287   0.797  0.3886  0.1471 -0.2717
 3684SOL     H137251   7.607   4.320   0.884  0.7441  2.2953 -1.1328
 3684SOL     H237252   7.498   4.327   0.779 -0.9928 -2.5209  0.2141
 3685SOL    OH237253   6.287   0.536   0.799  0.0658  0.0596  0.6134
 3685SOL     H137254   6.331   0.598   0.741 -0.5035 -0.1754 -0.0807
 3685SOL     H237255   6.295   0.451   0.756  0.3889 -0.2728  1.3078
 3686SOL    OH237256   1.932   4.702   7.563  0.1263  0.3139  0.5063
 3686SOL     H137257   1.911   4.611   7.582  0.4837 -0.6983 -3.5064
 3686SOL     H237258   2.016   4.716   7.606  1.5939 -2.2628 -1.3505
 3687SOL    OH237259   2.974   6.313   0.546  0.1312  0.0654  0.3149
 3687SOL     H137260   2.999   6.328   0.455 -1.4497 -1.1260 -0.3410
 3687SOL     H237261   3.056   6.320   0.595  1.0582  0.3678 -1.2347
 3688SOL    OH237262   0.231   7.167   7.861 -0.7569  0.4373  0.3281
 3688SOL     H137263   0.238   7.249   7.909  0.0598  0.3263  0.4013
 3688SOL     H237264   0.259   7.189   7.772 -0.9409  0.3310  0.2428
 3689SOL    OH237265   1.124   5.696   0.914 -0.6076 -0.0396  0.1518
 3689SOL     H137266   1.088   5.643   0.844 -0.9676  0.0282  0.2824
 3689SOL     H237267   1.078   5.780   0.906 -0.4142  0.0765  0.2625
 3690SOL    OH237268   2.355   3.112   2.241 -0.4170  0.0531  0.1862
 3690SOL     H137269   2.336   3.200   2.207  0.8247  0.5418  0.7205
 3690SOL     H237270   2.323   3.114   2.331  1.2418  0.5776  0.7910
 3691SOL    OH237271   7.103   5.771   1.562 -0.5538 -0.4915 -0.0570
 3691SOL     H137272   7.117   5.863   1.586  1.5865 -1.0795  1.0879
 3691SOL     H237273   7.010   5.765   1.541 -0.7664  1.8804  0.1171
 3692SOL    OH237274   4.929   3.530   6.609  0.4257 -0.6643  0.0691
 3692SOL     H137275   4.996   3.571   6.664  1.1183 -1.4207 -0.1966
 3692SOL     H237276   4.957   3.438   6.602 -0.3134 -0.8443 -0.5433
 3693SOL    OH237277   5.729   1.054   6.825  0.0255  0.4433 -0.2563
 3693SOL     H137278   5.696   1.009   6.904 -0.6388 -0.3771 -0.9903
 3693SOL     H237279   5.804   1.002   6.798  1.5294  1.9076  1.0069
 3694SOL    OH237280   0.598   1.823   0.909 -0.6950  0.3911  0.4706
 3694SOL     H137281   0.630   1.748   0.957  0.7589  0.0370 -0.9927
 3694SOL     H237282   0.590   1.893   0.974  2.2948  0.2510  1.0238
 3695SOL    OH237283   5.686   4.298   7.672  0.4958  0.0118  0.3118
 3695SOL     H137284   5.617   4.310   7.606  2.8767  0.5611 -2.1714
 3695SOL     H237285   5.639   4.290   7.755 -2.7788 -3.0129 -1.6947
 3696SOL    OH237286   5.220   6.817   6.675  0.2443  0.3625 -0.5119
 3696SOL     H137287   5.303   6.832   6.630  0.9741 -2.3858 -0.1659
 3696SOL     H237288   5.160   6.792   6.606 -0.2633  2.1382 -0.7329
 3697SOL    OH237289   5.896   3.726   2.488 -0.4809  0.4189  0.0644
 3697SOL     H137290   5.846   3.805   2.469 -0.8087  0.7152  1.9859
 3697SOL     H237291   5.872   3.665   2.419 -2.8684  0.8683  0.4477
 3698SOL    OH237292   6.108   7.872   7.789 -0.5959  0.6153  0.8581
 3698SOL     H137293   6.095   7.874   7.695 -0.6946  1.3715  0.8861
 3698SOL     H237294   6.135   7.960   7.812  2.0294 -0.2522  1.1889
 3699SOL    OH237295   4.695   6.186   8.298  1.0416  0.1647 -0.0498
 3699SOL     H137296   4.657   6.271   8.277  0.4256 -0.1916 -0.3892
 3699SOL     H237297   4.721   6.150   8.213  0.3041 -0.4515 -0.0224
 3700SOL    OH237298   5.190   5.398   1.873 -0.1329 -0.0110  0.1654
 3700SOL     H137299   5.218   5.307   1.861 -1.8556 -0.7139  1.2015
 3700SOL     H237300   5.219   5.443   1.794  1.7583 -1.1982  0.1641
 3701SOL    OH237301   4.042   5.754   0.967  0.7090  0.7998  0.1919
 3701SOL     H137302   4.015   5.796   0.885 -1.0925 -1.4859 -0.4443
 3701SOL     H237303   4.130   5.788   0.983 -0.6385  4.8176 -0.2191
 3702SOL    OH237304   1.592   0.979   0.862 -0.6725 -0.0281  0.0439
 3702SOL     H137305   1.645   0.956   0.785 -2.5389  1.6530 -1.8255
 3702SOL     H237306   1.508   1.007   0.825 -1.5747  0.9266  2.7247
 3703SOL    OH237307   0.517   7.553   1.312  0.2747 -0.1066 -0.1258
 3703SOL     H137308   0.434   7.554   1.358  0.1560  1.4852 -0.3460
 3703SOL     H237309   0.495   7.529   1.222  0.1021 -0.0383 -0.1008
 3704SOL    OH237310   0.072   1.648   2.022 -0.2111  0.4059  0.0361
 3704SOL     H137311   0.162   1.627   2.047  0.1696  2.4532  0.4783
 3704SOL     H237312   0.029   1.672   2.105 -1.3648 -1.1962 -0.0698
 3705SOL    OH237313   5.280   5.842   8.115 -0.0715 -0.0807 -0.5090
 3705SOL     H137314   5.270   5.763   8.168  0.2371 -0.2716 -0.7349
 3705SOL     H237315   5.222   5.906   8.157  2.1318  0.5681  1.6710
 3706SOL    OH237316   3.029   4.830   6.509 -0.2678  0.2700  0.3799
 3706SOL     H137317   3.114   4.792   6.490 -0.2368  0.4617  0.1339
 3706SOL     H237318   3.011   4.888   6.435 -0.9367 -0.3190  0.0630
 3707SOL    OH237319   7.094   3.738   8.236 -0.4340 -0.0626 -0.9505
 3707SOL     H137320   7.035   3.810   8.217 -0.1522  0.6352  0.6919
 3707SOL     H237321   7.051   3.689   8.306  0.1590 -0.4971 -0.8768
 3708SOL    OH237322   6.494   0.108   0.934 -0.1579  0.3183  0.6177
 3708SOL     H137323   6.490   0.124   1.028  2.0253 -0.1690  0.8227
 3708SOL     H237324   6.568   0.049   0.923 -0.1293  0.7063 -1.4663
 3709SOL    OH237325   5.527   5.224   0.907  0.2998 -0.2008 -0.2799
 3709SOL     H137326   5.502   5.254   0.819 -1.9149 -1.2312 -0.0404
 3709SOL     H237327   5.555   5.133   0.893  1.9329  0.2718 -0.2045
 3710SOL    OH237328   5.613   3.624   7.148  0.4631  0.6737  0.2058
 3710SOL     H137329   5.538   3.609   7.205  1.5885  2.7005  2.3453
 3710SOL     H237330   5.688   3.626   7.208  2.0252  0.2838 -1.6880
 3711SOL    OH237331   2.993   7.582   1.031 -0.6772 -0.2539  0.1774
 3711SOL     H137332   2.935   7.541   0.967 -1.0864  1.8910 -0.8661
 3711SOL     H237333   2.938   7.646   1.075  0.2360 -0.0441  1.0205
 3712SOL    OH237334   3.730   1.044   1.084  0.0478 -0.0926 -0.1582
 3712SOL     H137335   3.781   1.119   1.055  1.4494 -0.7722  0.4818
 3712SOL     H237336   3.656   1.040   1.023  0.0703  1.6519 -0.3364
 3713SOL    OH237337   1.572   0.164   5.894 -0.1425  0.2155  0.3795
 3713SOL     H137338   1.601   0.075   5.876  0.5735  0.1066  2.0040
 3713SOL     H237339   1.650   0.218   5.883 -0.0099  0.3195  1.7297
 3714SOL    OH237340   0.935   1.947   0.215 -0.2010 -0.2786  0.3216
 3714SOL     H137341   0.890   1.915   0.137  0.5246 -1.8057  0.5125
 3714SOL     H237342   1.025   1.960   0.187 -0.1255 -0.0185  0.6822
 3715SOL    OH237343   4.974   1.418   5.776 -0.3163  0.4998  0.0083
 3715SOL     H137344   5.056   1.459   5.750 -1.1494  2.5586  0.5544
 3715SOL     H237345   4.957   1.353   5.708  2.2068 -0.5771  0.3674
 3716SOL    OH237346   1.947   6.306   7.598 -0.4292  0.5092  0.0060
 3716SOL     H137347   1.995   6.225   7.613  0.9046  1.2881  0.0061
 3716SOL     H237348   1.886   6.285   7.527 -1.8474 -1.1858  1.6626
 3717SOL    OH237349   6.823   0.391   0.134  0.0861  0.3240 -0.4666
 3717SOL     H137350   6.752   0.327   0.130 -0.4794  1.0035 -1.5773
 3717SOL     H237351   6.786   0.465   0.182 -0.5406  1.3690 -2.4971
 3718SOL    OH237352   7.450   1.060   2.237 -0.5077 -0.3341 -0.1509
 3718SOL     H137353   7.456   1.155   2.234  1.6661 -0.4731 -1.6678
 3718SOL     H237354   7.406   1.041   2.320 -1.5413  1.9949 -0.1282
 3719SOL    OH237355   4.810   3.657   7.505 -0.2333  0.4535 -0.5675
 3719SOL     H137356   4.738   3.702   7.550 -0.0301  1.0202 -0.8046
 3719SOL     H237357   4.887   3.709   7.526  0.1778 -0.3978  0.0348
 3720SOL    OH237358   1.915   7.458   1.862 -0.2236  0.5265  0.5164
 3720SOL     H137359   1.908   7.501   1.947 -1.3929  2.7041 -0.6447
 3720SOL     H237360   1.830   7.474   1.820  0.3958 -0.3772 -1.1392
 3721SOL    OH237361   2.002   5.416   8.022  0.3810 -0.2540 -1.0186
 3721SOL     H137362   2.066   5.418   7.951 -0.3357 -2.1376 -1.7566
 3721SOL     H237363   1.939   5.349   7.995  0.8276 -1.9716  1.9958
 3722SOL    OH237364   6.753   2.181   0.610  0.2709  0.2047  0.1808
 3722SOL     H137365   6.760   2.179   0.706 -0.6390  0.7584  0.2632
 3722SOL     H237366   6.834   2.223   0.581  1.2492 -1.3759  0.6205
 3723SOL    OH237367   7.190   1.164   8.034  0.9195  0.0283  0.0663
 3723SOL     H137368   7.183   1.253   8.001  1.6152 -0.2565 -0.8496
 3723SOL     H237369   7.262   1.125   7.985 -1.0248 -1.8422 -1.4325
 3724SOL    OH237370   7.119   3.036   6.498 -0.5097  0.1707  0.4497
 3724SOL     H137371   7.085   2.998   6.579 -1.9705  1.8348  0.6677
 3724SOL     H237372   7.041   3.049   6.443  0.3987 -0.4986 -1.0414
 3725SOL    OH237373   4.565   6.772   6.743  0.1183 -0.5717  0.2894
 3725SOL     H137374   4.611   6.689   6.755 -0.3834 -0.7258  1.1747
 3725SOL     H237375   4.635   6.838   6.741  0.5300 -1.0365 -0.6468
 3726SOL    OH237376   6.283   3.501   6.427  0.5459 -0.0387  0.3340
 3726SOL     H137377   6.344   3.562   6.386  0.9388 -0.8751 -0.3382
 3726SOL     H237378   6.220   3.557   6.472  0.8623  0.8629 -0.3266
 3727SOL    OH237379   5.475   6.996   6.829 -0.0800  0.2066 -0.6429
 3727SOL     H137380   5.465   6.908   6.794 -1.7250 -0.6319  1.8358
 3727SOL     H237381   5.517   7.045   6.758  0.8667 -2.5356 -2.0619
 3728SOL    OH237382   1.279   0.286   5.634  0.2382  0.2203  0.3376
 3728SOL     H137383   1.288   0.193   5.614 -0.4857 -0.0203  1.0843
 3728SOL     H237384   1.200   0.313   5.589  0.4557  0.4803  0.1092
 3729SOL    OH237385   5.456   2.799   1.860  0.4895 -0.1266 -0.6178
 3729SOL     H137386   5.499   2.730   1.808 -0.8479 -0.1902 -1.6644
 3729SOL     H237387   5.460   2.876   1.804  0.3434  0.1832 -0.2014
 3730SOL    OH237388   4.039   3.078   0.159  0.4272 -0.0140  0.9588
 3730SOL     H137389   4.092   3.097   0.237  0.7298  2.0477  0.2829
 3730SOL     H237390   4.100   3.034   0.100  1.0595  1.1501  0.7147
 3731SOL    OH237391   4.336   1.934   7.207  0.5218 -0.2271 -0.1743
 3731SOL     H137392   4.318   2.027   7.217  2.0454  0.0552 -0.0099
 3731SOL     H237393   4.430   1.925   7.224  0.5771 -1.6527 -1.1217
 3732SOL    OH237394   2.290   3.368   1.597 -0.1077 -0.8970 -0.1021
 3732SOL     H137395   2.225   3.299   1.592 -1.8126  0.6145  0.7741
 3732SOL     H237396   2.245   3.441   1.640  1.5596  0.8602 -1.2486
 3733SOL    OH237397   4.015   2.254   7.822  0.6665 -0.3093 -0.2047
 3733SOL     H137398   3.938   2.198   7.817  1.2727 -1.0336 -1.6824
 3733SOL     H237399   4.088   2.193   7.835  1.0768  0.3254  0.5505
 3734SOL    OH237400   2.957   2.633   1.741 -0.2520 -0.0491  0.2448
 3734SOL     H137401   2.939   2.556   1.794  0.6792  1.1625  2.4096
 3734SOL     H237402   2.877   2.646   1.690 -0.6587 -2.0548  0.3373
 3735SOL    OH237403   4.406   2.163   2.537 -0.4438 -0.0789  0.1276
 3735SOL     H137404   4.351   2.234   2.505 -1.3353 -1.8714 -2.4913
 3735SOL     H237405   4.474   2.153   2.470  1.0691 -0.1751  1.6286
 3736SOL    OH237406   7.857   1.103   7.003  0.2144 -0.3755  0.1897
 3736SOL     H137407   7.923   1.158   7.045  0.7948 -1.5009  0.7613
 3736SOL     H237408   7.867   1.120   6.910 -1.0008  2.0641  0.4557
 3737SOL    OH237409   6.051   1.518   6.161  0.0305  0.4817 -0.7109
 3737SOL     H137410   6.072   1.545   6.250 -0.8754 -0.4839 -0.1938
 3737SOL     H237411   5.987   1.582   6.130 -1.2121 -0.3624  0.0795
 3738SOL    OH237412   2.160   1.709   1.037  0.2471  0.1797  0.1907
 3738SOL     H137413   2.122   1.662   1.111  1.0615 -0.3401  0.2798
 3738SOL     H237414   2.126   1.664   0.960 -1.2659  1.2335  0.2174
 3739SOL    OH237415   2.713   1.956   7.580 -0.3130  0.0594  0.3031
 3739SOL     H137416   2.744   1.866   7.566 -1.3581 -0.8031  3.1959
 3739SOL     H237417   2.620   1.953   7.558  0.1667  1.0788 -2.0114
 3740SOL    OH237418   1.873   2.702   1.592 -0.5909  0.1850  0.0099
 3740SOL     H137419   1.938   2.752   1.642 -1.5833  0.1388  1.3707
 3740SOL     H237420   1.799   2.692   1.652 -0.2331 -3.3455 -0.0681
 3741SOL    OH237421   5.647   6.629   7.989  0.5263  0.3269  0.0427
 3741SOL     H137422   5.708   6.605   7.920  0.5643 -1.9157  0.8104
 3741SOL     H237423   5.623   6.545   8.031 -1.9643  1.2847  0.6674
 3742SOL    OH237424   4.403   4.884   8.048 -0.0606 -0.3421 -0.2688
 3742SOL     H137425   4.311   4.860   8.057 -0.1247 -0.2503 -0.6667
 3742SOL     H237426   4.404   4.951   7.980  0.0924  0.9691  0.9819
 3743SOL    OH237427   0.791   1.610   0.144  0.1119 -0.9211  0.4900
 3743SOL     H137428   0.861   1.626   0.207 -0.2091 -0.1678  0.6598
 3743SOL     H237429   0.712   1.600   0.198  0.0916 -1.7598  0.3008
 3744SOL    OH237430   2.661   3.248   0.130  0.3170  0.3921 -0.5359
 3744SOL     H137431   2.587   3.216   0.079 -1.1529  1.5252  0.8747
 3744SOL     H237432   2.697   3.319   0.078 -0.0510  0.3487 -0.8511
 3745SOL    OH237433   3.176   6.929   7.584  0.4531  0.1162 -0.2531
 3745SOL     H137434   3.088   6.966   7.589  0.5963  0.6152 -1.2242
 3745SOL     H237435   3.217   6.950   7.668 -0.3532 -0.1146  0.1960
 3746SOL    OH237436   6.262   2.290   7.525  0.1880  0.0593  0.3400
 3746SOL     H137437   6.299   2.367   7.480  0.2419  0.1608  0.5581
 3746SOL     H237438   6.290   2.216   7.472 -0.6612  0.2625 -0.4070
 3747SOL    OH237439   4.847   1.136   6.889 -0.3189  0.4334  0.0565
 3747SOL     H137440   4.810   1.224   6.887  1.3310  1.1129 -0.9823
 3747SOL     H237441   4.890   1.130   6.974  0.2683  0.9094 -0.2106
 3748SOL    OH237442   3.993   5.385   7.095  0.7750 -0.3777 -0.2849
 3748SOL     H137443   3.974   5.466   7.048  0.8564 -0.4444 -0.4350
 3748SOL     H237444   3.959   5.316   7.038 -2.0233 -0.3234  1.2331
 3749SOL    OH237445   1.516   3.606   8.174 -0.0541  0.1206 -0.4095
 3749SOL     H137446   1.450   3.563   8.120 -0.7464 -0.3487  0.7967
 3749SOL     H237447   1.469   3.676   8.218  0.4051  0.2207 -0.0765
 3750SOL    OH237448   3.496   1.712   7.322  0.0713 -0.2185  0.1903
 3750SOL     H137449   3.460   1.708   7.233  0.4531  0.8596 -0.0185
 3750SOL     H237450   3.583   1.752   7.311  0.3714 -0.6410  0.9762
 3751SOL    OH237451   6.897   7.111   2.293 -0.0015  0.5962 -0.2877
 3751SOL     H137452   6.979   7.138   2.251 -0.3234  2.1517  0.0505
 3751SOL     H237453   6.857   7.193   2.323 -0.5281 -0.3469  1.6852
 3752SOL    OH237454   2.321   7.107   7.567 -0.1804 -0.1539 -0.1184
 3752SOL     H137455   2.243   7.094   7.513 -0.8494 -0.3490  0.8906
 3752SOL     H237456   2.393   7.113   7.504 -1.0883  0.6806 -1.0927
 3753SOL    OH237457   1.021   6.769   5.680 -0.0998 -0.5083  0.2279
 3753SOL     H137458   0.965   6.802   5.610  0.3466 -0.4720 -0.1143
 3753SOL     H237459   1.066   6.693   5.643 -2.1999 -2.4068  1.4751
 3754SOL    OH237460   2.255   0.438   7.622  0.0188  0.0445 -0.0346
 3754SOL     H137461   2.199   0.494   7.677  2.0039  1.1291  0.9150
 3754SOL     H237462   2.257   0.483   7.537  0.5719  0.7424  0.3441
 3755SOL    OH237463   5.966   4.073   2.320 -0.6309  0.2122  0.0638
 3755SOL     H137464   5.899   4.090   2.386 -1.8224  0.3032 -1.1492
 3755SOL     H237465   5.952   3.982   2.295 -0.8924  0.4919 -0.8330
 3756SOL    OH237466   5.446   0.857   0.811 -0.3237 -0.2919 -0.2782
 3756SOL     H137467   5.386   0.919   0.852  1.2949  0.5088  0.9393
 3756SOL     H237468   5.394   0.816   0.741 -2.0843  0.7986  0.3530
 3757SOL    OH237469   4.397   7.481   7.410 -0.0082  0.5476  0.1350
 3757SOL     H137470   4.458   7.408   7.417 -2.0117 -1.1499  0.5422
 3757SOL     H237471   4.452   7.558   7.401  2.2197 -0.7195  2.3327
 3758SOL    OH237472   5.503   7.837   0.154  0.2208  0.4111 -0.4552
 3758SOL     H137473   5.568   7.772   0.128  0.4010 -1.3070  3.7591
 3758SOL     H237474   5.420   7.788   0.158 -0.0466  0.9291  0.5951
 3759SOL    OH237475   1.284   4.389   1.234 -0.1446 -0.0020 -0.0402
 3759SOL     H137476   1.209   4.347   1.191 -0.4465 -0.9391  1.3769
 3759SOL     H237477   1.272   4.482   1.216 -3.0537  0.1390  2.2630
 3760SOL    OH237478   7.159   7.016   7.690 -0.0732  0.3290  0.1631
 3760SOL     H137479   7.166   7.111   7.684 -1.0301  0.4407  0.7117
 3760SOL     H237480   7.095   6.992   7.622 -1.0420  0.2530  1.0845
 3761SOL    OH237481   3.879   7.460   6.298 -0.1256 -0.2033 -0.2734
 3761SOL     H137482   3.824   7.511   6.238 -0.7822 -0.1746  0.3451
 3761SOL     H237483   3.938   7.524   6.337  0.8993 -0.3632 -1.5439
 3762SOL    OH237484   7.791   0.213   7.856 -0.0298  0.6947 -0.6540
 3762SOL     H137485   7.724   0.236   7.791 -0.1641 -0.4870 -0.9426
 3762SOL     H237486   7.865   0.182   7.804 -0.7736 -1.9490 -0.2187
 3763SOL    OH237487   6.846   1.391   7.209  0.1674 -0.5064 -0.2227
 3763SOL     H137488   6.934   1.409   7.176 -0.4713 -1.5372 -2.5953
 3763SOL     H237489   6.794   1.465   7.180 -0.7198 -2.1303 -2.9419
 3764SOL    OH237490   2.814   4.808   1.595  0.6183 -0.5024 -0.2773
 3764SOL     H137491   2.772   4.725   1.618 -0.6484  0.4478  0.8956
 3764SOL     H237492   2.876   4.824   1.666 -0.9542  0.8070  0.8212
 3765SOL    OH237493   1.561   4.436   8.261 -0.1428  0.3990 -0.4280
 3765SOL     H137494   1.553   4.516   8.208  0.0080 -0.6313 -2.0615
 3765SOL     H237495   1.590   4.370   8.198 -0.8259 -1.0657  0.7862
 3766SOL    OH237496   2.916   6.684   7.238  0.0075 -0.5327 -0.0283
 3766SOL     H137497   2.993   6.723   7.278 -0.5375  0.5004  0.0276
 3766SOL     H237498   2.879   6.627   7.305  0.4284 -0.6288  0.1204
 3767SOL    OH237499   6.895   3.333   7.784  0.2846  0.0035 -0.3021
 3767SOL     H137500   6.827   3.324   7.851  0.2197 -2.1130 -0.6048
 3767SOL     H237501   6.847   3.345   7.703  0.2704 -0.6144 -0.3919
 3768SOL    OH237502   1.781   4.717   0.509 -0.7269 -0.0197  0.3699
 3768SOL     H137503   1.777   4.806   0.543  1.8960  0.7619 -1.1860
 3768SOL     H237504   1.822   4.666   0.579  0.5389  0.6553  0.1468
 3769SOL    OH237505   5.881   4.249   7.454  0.0600 -0.1661  0.5111
 3769SOL     H137506   5.849   4.223   7.540  2.7619 -0.9448  1.3518
 3769SOL     H237507   5.916   4.168   7.416 -0.6436  0.2780 -1.1071
 3770SOL    OH237508   5.658   6.277   2.296  0.4811  0.4684 -0.2874
 3770SOL     H137509   5.731   6.305   2.351  0.2841  2.1894 -0.8831
 3770SOL     H237510   5.626   6.197   2.338  1.9606  0.3354  0.6323
 3771SOL    OH237511   6.826   5.314   1.455  0.2988 -0.4724 -0.7654
 3771SOL     H137512   6.770   5.311   1.533  1.4590  0.2594  0.1258
 3771SOL     H237513   6.795   5.242   1.400  0.3092 -1.8697  0.9799
 3772SOL    OH237514   5.903   1.021   1.116 -0.3558 -0.6692 -0.4742
 3772SOL     H137515   5.981   1.000   1.167  0.0239  0.5670 -0.5290
 3772SOL     H237516   5.841   1.057   1.179 -1.1218 -2.2477 -0.3225
 3773SOL    OH237517   6.572   0.013   6.352  1.1837  0.3789  0.5380
 3773SOL     H137518   6.582   0.069   6.275 -3.5053  1.1267  0.3564
 3773SOL     H237519   6.560   0.073   6.425  0.0168 -0.3645  0.9649
 3774SOL    OH237520   0.323   5.830   7.562  0.1209  0.2591  0.0680
 3774SOL     H137521   0.246   5.850   7.509  0.4378  0.4629 -0.3246
 3774SOL     H237522   0.377   5.909   7.556  0.3317  0.1415  0.3919
 3775SOL    OH237523   3.723   3.208   1.164 -0.8261 -0.5728 -1.1057
 3775SOL     H137524   3.765   3.289   1.135  0.8816 -1.5203 -1.3474
 3775SOL     H237525   3.631   3.219   1.142 -0.3299  0.6343 -2.6528
 3776SOL    OH237526   5.473   3.920   6.481 -0.0125 -0.0262 -0.3074
 3776SOL     H137527   5.405   3.859   6.451  0.0405  0.1889 -0.8788
 3776SOL     H237528   5.427   3.982   6.537  0.1968 -1.4657  1.5030
 3777SOL    OH237529   3.411   7.507   6.126 -0.0210 -0.2296 -0.1633
 3777SOL     H137530   3.404   7.505   6.221  1.0496  0.7289 -0.0568
 3777SOL     H237531   3.505   7.517   6.109 -0.1723 -0.7570 -1.3180
 3778SOL    OH237532   2.586   4.285   6.350 -1.0671  0.1599  0.6000
 3778SOL     H137533   2.504   4.240   6.368 -1.5992  0.2967 -1.3497
 3778SOL     H237534   2.605   4.334   6.430 -1.5364 -1.8798  2.0068
 3779SOL    OH237535   6.531   5.368   2.451 -0.1470  0.0031  0.1693
 3779SOL     H137536   6.614   5.321   2.460 -0.5352 -0.5129  1.0037
 3779SOL     H237537   6.539   5.442   2.511 -1.0454 -1.1027  1.6807
 3780SOL    OH237538   7.835   6.157   8.204  0.4693  0.2263  0.1628
 3780SOL     H137539   7.848   6.248   8.234  0.2008  0.2302  0.2653
 3780SOL     H237540   7.804   6.165   8.114 -1.1605  0.2807  0.7256
 3781SOL    OH237541   3.842   6.462   6.618 -0.4227 -0.4367 -0.7833
 3781SOL     H137542   3.822   6.425   6.703  0.7895 -0.8031 -0.6525
 3781SOL     H237543   3.847   6.557   6.634 -0.8962 -0.4443 -0.5903
 3782SOL    OH237544   5.655   2.168   7.481 -0.0729 -0.3175  0.5224
 3782SOL     H137545   5.702   2.109   7.540  2.2844 -1.0828 -2.0443
 3782SOL     H237546   5.698   2.158   7.397 -1.2329  3.2191 -0.5873
 3783SOL    OH237547   4.724   7.837   1.380 -0.2225 -0.3036  0.0323
 3783SOL     H137548   4.802   7.797   1.419 -0.2319 -0.1656  0.1960
 3783SOL     H237549   4.710   7.790   1.298 -1.3292 -1.8987  1.1179
 3784SOL    OH237550   6.208   7.224   6.103 -0.3509 -0.4113  0.2955
 3784SOL     H137551   6.124   7.240   6.060  0.5650 -2.3766 -2.3738
 3784SOL     H237552   6.257   7.305   6.090 -0.9651 -0.1266 -0.2952
 3785SOL    OH237553   1.406   7.195   7.063  0.0594  0.3896 -0.7616
 3785SOL     H137554   1.479   7.152   7.018 -0.3521 -0.0674 -1.0071
 3785SOL     H237555   1.334   7.132   7.055  0.1798 -0.0142  1.1621
 3786SOL    OH237556   3.854   3.666   7.511  0.2796  0.2761 -0.0131
 3786SOL     H137557   3.839   3.646   7.419 -0.8665 -1.4012  0.5263
 3786SOL     H237558   3.803   3.602   7.559 -0.9088  2.5016  1.8075
 3787SOL    OH237559   2.168   7.919   6.285  0.1319 -0.1153 -0.0555
 3787SOL     H137560   2.093   7.977   6.271  0.6838  0.5171 -0.3916
 3787SOL     H237561   2.223   7.965   6.348  1.1468  0.2749 -1.2010
 3788SOL    OH237562   7.343   5.673   7.410 -0.0691 -0.0121 -0.3451
 3788SOL     H137563   7.304   5.749   7.366 -0.9497  1.0077  2.0870
 3788SOL     H237564   7.433   5.670   7.377 -0.1766  1.7862 -0.8752
 3789SOL    OH237565   0.222   4.096   0.074 -0.7254  0.1836 -0.0631
 3789SOL     H137566   0.313   4.103   0.101 -0.0184  0.6170 -2.3738
 3789SOL     H237567   0.190   4.186   0.073 -0.4763  0.2686 -1.4454
 3790SOL    OH237568   1.087   5.958   5.680  0.1536 -0.2097 -0.1654
 3790SOL     H137569   1.171   5.993   5.710 -0.4485  2.4604 -1.4402
 3790SOL     H237570   1.027   5.976   5.752  0.4826 -1.4057  0.4210
 3791SOL    OH237571   0.538   7.506   7.039  0.3454 -0.6417 -0.3635
 3791SOL     H137572   0.595   7.544   6.973  0.2306 -0.8840 -0.6014
 3791SOL     H237573   0.574   7.420   7.058 -0.0299 -0.8599 -0.6302
 3792SOL    OH237574   5.585   4.642   0.348 -0.2620 -0.0052 -0.1335
 3792SOL     H137575   5.546   4.728   0.333  0.2562  0.3898  0.7156
 3792SOL     H237576   5.578   4.597   0.264  1.1157  1.5352 -1.1014
 3793SOL    OH237577   1.776   5.028   1.865  0.1865  0.0177 -0.0165
 3793SOL     H137578   1.716   5.070   1.928 -1.4278 -2.1036 -0.0978
 3793SOL     H237579   1.863   5.049   1.898 -0.6079  1.1024  1.4797
 3794SOL    OH237580   7.802   3.366   0.696 -0.0221  0.3208 -0.5521
 3794SOL     H137581   7.710   3.350   0.679  0.2608 -0.5309 -1.2921
 3794SOL     H237582   7.825   3.305   0.766 -0.1177  0.8333 -0.0651
 3795SOL    OH237583   6.942   1.079   0.023 -0.0879 -0.5206 -0.5564
 3795SOL     H137584   6.931   1.051  -0.068 -2.2184  1.3590 -0.9197
 3795SOL     H237585   6.865   1.044   0.068  1.0424 -1.5945  0.6058
 3796SOL    OH237586   0.207   2.952   8.090  0.4172  0.5884 -0.1324
 3796SOL     H137587   0.169   2.920   8.172 -0.5339 -2.6211 -1.7469
 3796SOL     H237588   0.131   2.975   8.036  0.9369 -0.0624 -1.1617
 3797SOL    OH237589   2.394   6.489   6.038 -0.0140  0.4420  0.4131
 3797SOL     H137590   2.357   6.402   6.025 -1.2226  0.3232  4.2581
 3797SOL     H237591   2.339   6.546   5.984 -0.9531 -0.7854  0.0307
 3798SOL    OH237592   1.698   7.549   7.614  0.0563  0.3914  0.1011
 3798SOL     H137593   1.751   7.565   7.693  1.0467  2.2986 -0.9015
 3798SOL     H237594   1.624   7.499   7.646 -0.9569  3.3752  2.8167
 3799SOL    OH237595   0.085   5.904   7.432 -0.4655  0.5363  0.0597
 3799SOL     H137596   0.071   5.956   7.511 -0.5837 -0.5292  0.7515
 3799SOL     H237597   0.006   5.850   7.424 -0.2773  0.3425 -0.5488
 3800SOL    OH237598   2.063   0.728   1.088  0.6041  0.1460 -0.3663
 3800SOL     H137599   2.085   0.810   1.045 -1.8202  0.4221 -1.1527
 3800SOL     H237600   2.032   0.754   1.175  1.0705 -0.0551 -0.1360
 3801SOL    OH237601   4.756   0.738   0.976 -0.6614  0.2465 -0.1306
 3801SOL     H137602   4.794   0.716   1.062 -0.7181 -0.9464 -0.4091
 3801SOL     H237603   4.712   0.658   0.948 -0.0212  0.4120 -1.6140
 3802SOL    OH237604   4.482   1.356   0.451  0.2504  0.0139  0.3807
 3802SOL     H137605   4.551   1.398   0.400 -0.0294  0.8366  0.6772
 3802SOL     H237606   4.482   1.401   0.535 -1.5677  0.9634 -0.1086
 3803SOL    OH237607   1.517   0.225   7.158  0.0841  0.8045  0.2674
 3803SOL     H137608   1.578   0.252   7.227  0.1964  1.0631  0.0661
 3803SOL     H237609   1.461   0.301   7.144 -1.5750 -0.0711  1.8405
 3804SOL    OH237610   2.277   2.733   8.139  0.3579 -0.1588  0.2458
 3804SOL     H137611   2.237   2.669   8.080 -2.1771  0.6193  1.0313
 3804SOL     H237612   2.353   2.765   8.092 -1.1071 -0.1860 -2.2577
 3805SOL    OH237613   0.524   7.838   1.171  0.1445  0.2008  0.5532
 3805SOL     H137614   0.536   7.782   1.248 -1.6118 -2.2730 -0.8965
 3805SOL     H237615   0.584   7.803   1.105  2.1312  2.7204  0.9169
 3806SOL    OH237616   7.535   3.344   0.627 -0.2165 -0.0188 -0.0818
 3806SOL     H137617   7.527   3.409   0.558  1.6674  3.1556  2.5286
 3806SOL     H237618   7.445   3.318   0.645 -1.0735  2.1565 -0.9834
 3807SOL    OH237619   0.803   7.208   0.308 -0.0193  0.3159 -0.4119
 3807SOL     H137620   0.867   7.205   0.236 -0.5684  3.4273 -1.0910
 3807SOL     H237621   0.752   7.127   0.298  0.5515  0.2315 -2.9192
 3808SOL    OH237622   2.933   3.245   1.157  0.0894 -0.0704  0.0408
 3808SOL     H137623   2.863   3.248   1.222 -2.4314 -2.7269 -2.4673
 3808SOL     H237624   2.905   3.307   1.089  0.0107 -1.3811 -1.1251
 3809SOL    OH237625   6.908   0.911   5.914  0.9049 -0.0070  0.7583
 3809SOL     H137626   6.840   0.912   5.982 -0.8813 -0.2571 -0.9725
 3809SOL     H237627   6.988   0.938   5.959 -0.4868  0.9869  2.7019
 3810SOL    OH237628   5.493   4.269   0.595  0.0770  0.1750  0.1313
 3810SOL     H137629   5.548   4.243   0.521 -0.6181 -0.9135 -0.0157
 3810SOL     H237630   5.440   4.341   0.561 -0.3217 -0.3987 -0.4663
 3811SOL    OH237631   2.707   2.213   1.763 -0.0514 -0.0888 -0.0244
 3811SOL     H137632   2.744   2.127   1.746  0.6717  0.5071 -1.6211
 3811SOL     H237633   2.752   2.271   1.701  0.4236  1.6826  1.9099
 3812SOL    OH237634   4.240   7.244   0.116 -0.4746  0.2919  0.1477
 3812SOL     H137635   4.330   7.254   0.150 -1.3901  1.5256  2.3570
 3812SOL     H237636   4.236   7.154   0.084  1.0970 -0.2913  1.5129
 3813SOL    OH237637   3.140   6.761   8.234  0.3341 -0.8331 -0.0915
 3813SOL     H137638   3.074   6.810   8.186  0.7398 -1.2645 -1.0956
 3813SOL     H237639   3.187   6.828   8.285 -1.9683 -0.7132  1.9990
 3814SOL    OH237640   4.582   5.088   8.130 -0.3795  0.4717  0.2459
 3814SOL     H137641   4.512   5.023   8.124  0.3740 -0.4736  1.4093
 3814SOL     H237642   4.655   5.041   8.169 -0.0146  2.1524  1.6754
 3815SOL    OH237643   5.064   3.230   0.084  0.1422 -0.2023  0.2326
 3815SOL     H137644   5.060   3.298   0.152  2.2058  1.3459 -1.1338
 3815SOL     H237645   4.985   3.243   0.032  1.0675  1.9372 -0.6939
 3816SOL    OH237646   7.624   5.361   6.848 -0.3567 -0.6336  0.6088
 3816SOL     H137647   7.636   5.444   6.803  0.3525 -0.7218  0.6218
 3816SOL     H237648   7.694   5.305   6.814 -1.3884 -1.5254 -0.0805
 3817SOL    OH237649   1.580   2.079   1.317 -0.2488  0.5363  0.7793
 3817SOL     H137650   1.550   2.048   1.402 -0.6126 -0.5670  0.2642
 3817SOL     H237651   1.525   2.033   1.254  1.7564 -0.6834 -0.1408
 3818SOL    OH237652   5.208   2.919   7.409 -0.5569  0.6101 -0.5062
 3818SOL     H137653   5.201   2.852   7.340 -0.7803 -1.2325  1.2377
 3818SOL     H237654   5.302   2.928   7.424 -0.5132  0.9180 -0.9626
 3819SOL    OH237655   4.466   1.301   8.148  0.5489 -0.5052 -0.1396
 3819SOL     H137656   4.502   1.362   8.213  1.7326 -2.0264  0.6532
 3819SOL     H237657   4.534   1.235   8.137  0.0375 -0.7009 -2.3760
 3820SOL    OH237658   0.256   0.223   6.717  0.3528 -0.3883  0.0631
 3820SOL     H137659   0.188   0.247   6.780  0.0919  1.8592 -1.0345
 3820SOL     H237660   0.254   0.127   6.716 -1.3600 -0.4049  1.5836
 3821SOL    OH237661   1.394   1.198   7.819 -0.5769  0.4184  0.2199
 3821SOL     H137662   1.387   1.254   7.896 -0.2675  1.4354 -0.4899
 3821SOL     H237663   1.465   1.137   7.839 -0.9183  0.2721  0.9907
 3822SOL    OH237664   6.578   6.938   6.844 -0.8572 -0.2090  0.0560
 3822SOL     H137665   6.617   6.885   6.913 -0.9746 -0.9767 -0.4560
 3822SOL     H237666   6.554   6.875   6.776 -1.4003  0.4507 -0.3757
 3823SOL    OH237667   5.866   7.392   6.876 -0.1542  0.6313  0.5112
 3823SOL     H137668   5.950   7.438   6.874  1.9775 -3.0461 -0.7085
 3823SOL     H237669   5.858   7.353   6.789 -3.3029  1.0730  0.5299
 3824SOL    OH237670   3.996   0.531   1.040 -0.0998 -0.3660 -0.6862
 3824SOL     H137671   4.084   0.512   1.007 -0.7903 -2.2520 -1.5319
 3824SOL     H237672   3.975   0.455   1.094 -0.7622  0.6274  0.4773
 3825SOL    OH237673   7.579   0.247   7.662 -0.4967  0.0702 -0.1105
 3825SOL     H137674   7.484   0.258   7.656 -0.4577  0.0012 -0.8377
 3825SOL     H237675   7.605   0.214   7.576 -0.1208 -2.1305  0.8165
 3826SOL    OH237676   1.195   2.151   6.244  0.0889  0.4684 -0.1995
 3826SOL     H137677   1.238   2.072   6.211  0.5510  0.1390  1.1550
 3826SOL     H237678   1.262   2.193   6.298 -1.1692  0.1185  1.6767
 3827SOL    OH237679   0.082   0.445   5.631  0.1145  0.5853 -0.6140
 3827SOL     H137680   0.127   0.380   5.576  0.5986  1.0611 -0.7814
 3827SOL     H237681   0.152   0.500   5.666 -0.2413  0.6037  0.0670
 3828SOL    OH237682   4.897   2.843   7.033  0.1725 -0.1267 -0.2159
 3828SOL     H137683   4.867   2.780   7.099 -1.4938  1.5650  0.6782
 3828SOL     H237684   4.973   2.885   7.073  0.8673 -1.0721 -0.5329
 3829SOL    OH237685   4.524   5.750   7.137 -0.6087 -0.4536  0.2271
 3829SOL     H137686   4.546   5.842   7.124 -1.1234 -0.2581  0.7515
 3829SOL     H237687   4.604   5.703   7.114 -0.4236  0.1088 -0.2814
 3830SOL    OH237688   2.788   7.767   7.558 -0.0475 -0.0154 -0.5233
 3830SOL     H137689   2.695   7.766   7.533 -0.1118 -0.2191 -0.2760
 3830SOL     H237690   2.788   7.794   7.650  0.0099 -1.7194 -0.0023
 3831SOL    OH237691   7.441   1.738   6.683 -0.3437  0.3227 -0.4940
 3831SOL     H137692   7.415   1.649   6.658  0.4089  0.2002 -0.8412
 3831SOL     H237693   7.369   1.769   6.739 -1.1379 -0.0820 -1.2797
 3832SOL    OH237694   3.723   7.341   1.642 -0.1359 -0.3392 -0.2132
 3832SOL     H137695   3.714   7.365   1.734  2.3792 -1.0288  0.2742
 3832SOL     H237696   3.720   7.246   1.642  1.6114 -0.4160 -0.5878
 3833SOL    OH237697   7.069   5.980   0.183 -0.4534 -0.4047 -0.6556
 3833SOL     H137698   7.147   6.020   0.145  0.1160 -0.8177  0.0680
 3833SOL     H237699   7.082   5.886   0.171  0.2284 -0.6079  1.4691
 3834SOL    OH237700   4.328   1.918   6.881  0.3089  0.4811  0.1478
 3834SOL     H137701   4.338   1.905   6.975 -0.3610  0.2515  0.1896
 3834SOL     H237702   4.310   2.012   6.872 -0.5854  0.3338  0.3358
 3835SOL    OH237703   3.439   6.788   0.592 -0.4449  0.2802  0.2865
 3835SOL     H137704   3.492   6.858   0.631 -1.2315  0.3201  1.3026
 3835SOL     H237705   3.460   6.791   0.499  2.8600 -1.0176  0.9396
 3836SOL    OH237706   6.015   7.191   7.453 -0.3512 -0.1329 -0.2710
 3836SOL     H137707   6.037   7.281   7.432  1.6244 -0.4447  0.3512
 3836SOL     H237708   5.994   7.192   7.547  1.8045 -0.6794  0.2378
 3837SOL    OH237709   3.761   5.483   6.448  1.0745 -0.4490  0.6375
 3837SOL     H137710   3.810   5.554   6.406  0.9165 -0.5362  0.3087
 3837SOL     H237711   3.731   5.521   6.531  2.0453 -0.5260  1.0303
 3838SOL    OH237712   1.783   5.204   1.027 -0.3258  0.4966  0.1627
 3838SOL     H137713   1.758   5.275   1.086 -0.4796  1.2977 -0.8443
 3838SOL     H237714   1.864   5.234   0.987 -1.3508  0.9405 -1.6394
 3839SOL    OH237715   4.600   6.516   6.927 -0.1851 -0.0426  0.3976
 3839SOL     H137716   4.623   6.468   7.006  1.2842  0.0801  0.0607
 3839SOL     H237717   4.594   6.607   6.956 -0.9853 -0.1621  0.6280
 3840SOL    OH237718   7.176   0.944   5.919  0.1223 -0.3649 -0.0812
 3840SOL     H137719   7.172   1.006   5.845 -0.6234 -0.3138 -0.0010
 3840SOL     H237720   7.165   0.858   5.879  2.3436 -0.5589 -0.3338
 3841SOL    OH237721   2.155   1.270   7.693  0.2683  0.1110 -0.6613
 3841SOL     H137722   2.138   1.246   7.602 -0.8579  1.2046 -0.7519
 3841SOL     H237723   2.170   1.186   7.737  4.5980 -0.2500 -2.5611
 3842SOL    OH237724   2.543   3.309   0.661 -0.1882 -0.0501  0.4241
 3842SOL     H137725   2.586   3.342   0.582  0.7269 -0.4182  0.7498
 3842SOL     H237726   2.461   3.270   0.630 -0.9837  1.9573 -0.0341
 3843SOL    OH237727   6.690   2.504   5.707  0.0838  0.1566 -0.7787
 3843SOL     H137728   6.691   2.578   5.646 -0.2311  0.4970 -0.3681
 3843SOL     H237729   6.689   2.544   5.794  0.0383 -0.3292 -0.5545
 3844SOL    OH237730   7.624   1.815   0.359  0.3691  0.1257 -0.0404
 3844SOL     H137731   7.640   1.783   0.448  0.4678 -0.7152 -0.3542
 3844SOL     H237732   7.584   1.740   0.313 -1.4516  1.1617 -0.1785
 3845SOL    OH237733   2.426   7.943   7.893  0.1928  0.6143  0.1765
 3845SOL     H137734   2.395   7.877   7.831 -0.0643  0.3980  0.5392
 3845SOL     H237735   2.354   8.006   7.898  0.5663  1.0930 -0.4163
 3846SOL    OH237736   5.826   7.625   2.387  0.2130 -0.1381  0.0296
 3846SOL     H137737   5.762   7.603   2.320  0.2939 -1.9421  0.5214
 3846SOL     H237738   5.790   7.702   2.431 -0.1371  0.6928 -1.6613
 3847SOL    OH237739   6.906   6.230   7.793 -0.2018 -0.5925 -0.2955
 3847SOL     H137740   6.843   6.252   7.724  0.5673  0.2048 -0.7549
 3847SOL     H237741   6.979   6.289   7.778  0.2411 -0.8420  0.8373
 3848SOL    OH237742   0.862   3.838   0.728  0.1125 -0.0008 -0.6159
 3848SOL     H137743   0.917   3.789   0.667  0.2395 -2.6510  1.5360
 3848SOL     H237744   0.920   3.862   0.800 -0.3753  1.7708 -0.7973
 3849SOL    OH237745   0.336   6.592   7.871 -0.2004  0.0165 -0.2842
 3849SOL     H137746   0.425   6.589   7.905 -0.5965 -1.2323  0.6747
 3849SOL     H237747   0.307   6.501   7.872 -0.5915  0.0498 -3.0250
 3850SOL    OH237748   2.877   6.984   0.568  0.1095  0.5911  0.1942
 3850SOL     H137749   2.924   7.057   0.528 -0.0308  0.4711 -0.1981
 3850SOL     H237750   2.939   6.945   0.628  1.3316 -1.0295 -2.0466
 3851SOL    OH237751   3.663   7.525   0.606  0.1978 -0.0485  0.0509
 3851SOL     H137752   3.694   7.504   0.518  1.9831 -1.9646  1.0858
 3851SOL     H237753   3.732   7.580   0.643 -0.8909  1.3608  0.0189
 3852SOL    OH237754   3.196   1.834   7.578 -0.1677  0.3605 -0.7265
 3852SOL     H137755   3.255   1.758   7.582 -0.2073  0.2563 -1.9918
 3852SOL     H237756   3.122   1.809   7.633  0.2498 -0.1423 -0.3815
 3853SOL    OH237757   5.875   5.346   5.933 -0.4926  0.4039 -0.0651
 3853SOL     H137758   5.812   5.416   5.947 -1.0467 -0.5951  2.7291
 3853SOL     H237759   5.957   5.380   5.969 -0.4268  0.1344  0.0410
 3854SOL    OH237760   1.528   7.010   5.997  0.5101  0.2529 -0.0687
 3854SOL     H137761   1.476   6.954   5.939  0.1686  1.8141 -1.3150
 3854SOL     H237762   1.490   7.097   5.986  3.2823  1.4279 -0.9241
 3855SOL    OH237763   4.859   6.653   6.995  0.1352  0.0254 -0.7712
 3855SOL     H137764   4.907   6.588   7.045  1.3944  2.3611  1.1269
 3855SOL     H237765   4.772   6.655   7.035 -0.2818 -1.2528 -1.5693
 3856SOL    OH237766   7.546   6.699   2.513 -0.5778 -0.3131 -0.7556
 3856SOL     H137767   7.635   6.666   2.519 -0.8866 -0.9657  0.6315
 3856SOL     H237768   7.554   6.793   2.530 -0.2942 -0.6032  0.8842
 3857SOL    OH237769   1.664   3.518   1.001  0.3805  0.0568 -0.5050
 3857SOL     H137770   1.715   3.522   1.082 -0.9638  0.2300  0.3362
 3857SOL     H237771   1.628   3.606   0.991  1.9915  0.5707 -2.2661
 3858SOL    OH237772   6.768   5.946   0.058 -0.3774 -0.0269 -0.2179
 3858SOL     H137773   6.818   5.894   0.121 -1.2012 -0.4492  0.0947
 3858SOL     H237774   6.747   5.885  -0.013 -0.1280  0.2430 -0.5240
 3859SOL    OH237775   5.318   4.799   1.090  0.2421 -0.1237  0.2808
 3859SOL     H137776   5.405   4.767   1.069  0.1754  0.0392 -0.2551
 3859SOL     H237777   5.269   4.792   1.008 -0.4917 -1.0046  0.7804
 3860SOL    OH237778   3.273   1.864   5.793 -0.1709 -0.6951  0.5560
 3860SOL     H137779   3.186   1.856   5.755 -0.2969  0.6906  0.5159
 3860SOL     H237780   3.314   1.779   5.777 -0.4827 -0.3946 -2.0161
 3861SOL    OH237781   2.450   0.909   1.752 -0.0350  0.7045 -0.2688
 3861SOL     H137782   2.407   0.989   1.720 -1.2396  0.1015 -0.1782
 3861SOL     H237783   2.543   0.922   1.732 -0.2624  1.9969 -0.5358
 3862SOL    OH237784   1.375   0.594   6.900 -0.2245  0.3141  0.3466
 3862SOL     H137785   1.426   0.516   6.879  0.1032  0.8225 -0.7818
 3862SOL     H237786   1.285   0.562   6.909 -0.1702 -0.1166 -0.5989
 3863SOL    OH237787   3.845   1.756   7.071 -0.3461  0.4871  0.1534
 3863SOL     H137788   3.936   1.768   7.045 -0.0452  1.1364  1.4720
 3863SOL     H237789   3.839   1.797   7.157 -2.1349  1.3947 -0.3750
 3864SOL    OH237790   6.126   4.408   7.388  0.7672  0.4413  0.0948
 3864SOL     H137791   6.039   4.371   7.400  0.5367  0.7397 -0.6269
 3864SOL     H237792   6.172   4.345   7.333  1.3642 -0.2442  1.3623
 3865SOL    OH237793   5.773   6.026   7.713 -0.6427  0.3312 -0.2365
 3865SOL     H137794   5.679   6.006   7.707 -0.4881 -0.7481  0.7596
 3865SOL     H237795   5.785   6.053   7.804 -0.2403  1.8694 -0.7395
 3866SOL    OH237796   3.604   4.676   6.232 -0.5051 -0.0841  0.0717
 3866SOL     H137797   3.511   4.676   6.255 -0.4671  0.4218  0.2331
 3866SOL     H237798   3.624   4.769   6.217  0.1374 -0.1233  0.6945
 3867SOL    OH237799   4.377   2.081   1.755  0.1103 -0.1552 -0.4610
 3867SOL     H137800   4.385   2.001   1.806 -0.7744  1.1519  1.8492
 3867SOL     H237801   4.440   2.141   1.795  0.1167  0.5918 -1.5661
 3868SOL    OH237802   2.613   2.195   2.028 -0.0053  1.0112 -0.4364
 3868SOL     H137803   2.620   2.182   1.934 -0.8693  1.1227 -0.5225
 3868SOL     H237804   2.585   2.110   2.062 -1.8761  1.5410 -0.5530
 3869SOL    OH237805   3.262   7.470   7.071 -0.1092 -0.3111  1.0273
 3869SOL     H137806   3.290   7.542   7.014 -1.5875 -0.6452 -0.1344
 3869SOL     H237807   3.343   7.440   7.113  0.9944 -0.0360 -0.8510
 3870SOL    OH237808   5.410   3.268   7.327 -0.7681  0.1330  0.1080
 3870SOL     H137809   5.408   3.273   7.231 -0.8583  0.5899  0.1353
 3870SOL     H237810   5.324   3.233   7.350 -1.2126  1.2086  0.0963
 3871SOL    OH237811   3.846   3.181   2.188  0.6220 -0.1563  0.3311
 3871SOL     H137812   3.819   3.264   2.150  1.0653 -0.3924 -0.5129
 3871SOL     H237813   3.778   3.119   2.163  0.9462 -0.3262 -0.1289
 3872SOL    OH237814   3.481   1.177   7.383 -0.3846  0.3309 -0.1571
 3872SOL     H137815   3.451   1.249   7.327 -0.3437 -0.9806 -1.9021
 3872SOL     H237816   3.546   1.131   7.330  1.4336  0.4592  1.8999
 3873SOL    OH237817   3.325   4.933   0.961 -0.0436  0.3317 -0.9406
 3873SOL     H137818   3.335   4.972   0.874 -0.3533 -0.5756 -1.3888
 3873SOL     H237819   3.241   4.888   0.957  0.8586 -1.3854 -0.8268
 3874SOL    OH237820   5.848   6.851   0.421 -0.3864 -0.1671  0.1329
 3874SOL     H137821   5.833   6.945   0.429 -0.3378 -0.1022 -0.4819
 3874SOL     H237822   5.925   6.835   0.476  0.1178  0.3027 -0.4168
 3875SOL    OH237823   7.023   3.825   7.721 -0.2336 -0.2962 -0.7035
 3875SOL     H137824   6.929   3.825   7.704 -0.2842 -0.0943 -0.4249
 3875SOL     H237825   7.044   3.735   7.743 -0.1871 -0.5405 -1.7320
 3876SOL    OH237826   0.851   3.153   0.503 -0.2435 -0.5530 -0.3442
 3876SOL     H137827   0.928   3.182   0.552 -0.2071 -1.8433  0.3875
 3876SOL     H237828   0.887   3.109   0.426 -0.2992  1.3567 -1.4884
 3877SOL    OH237829   1.516   3.349   7.563 -0.3906 -0.0657  0.1667
 3877SOL     H137830   1.518   3.330   7.469 -0.2529 -1.6388  0.4741
 3877SOL     H237831   1.428   3.383   7.579 -1.1211 -1.7563 -0.1801
 3878SOL    OH237832   7.275   4.338   7.106 -0.0920  0.6369  0.0694
 3878SOL     H137833   7.238   4.268   7.052  2.7236 -0.8056 -0.0798
 3878SOL     H237834   7.273   4.415   7.051  0.5106 -0.2749 -1.2449
 3879SOL    OH237835   0.032   0.160   0.166  0.5081 -0.3719 -0.5594
 3879SOL     H137836  -0.040   0.114   0.210 -0.5307  2.6261  1.0299
 3879SOL     H237837   0.080   0.203   0.237  1.3192  1.1076 -1.9692
 3880SOL    OH237838   7.288   6.854   6.200 -0.1155  0.4785 -0.4235
 3880SOL     H137839   7.367   6.872   6.251 -0.6089  0.2649  0.4283
 3880SOL     H237840   7.284   6.925   6.136  0.7601  0.4897 -0.4679
 3881SOL    OH237841   1.613   5.440   7.738  0.5463  0.0304 -0.0929
 3881SOL     H137842   1.703   5.474   7.736  0.8354 -0.7241  0.0252
 3881SOL     H237843   1.584   5.442   7.647  0.3142  1.2389 -0.0015
 3882SOL    OH237844   5.245   1.282   6.069 -0.4645 -0.5814 -0.4334
 3882SOL     H137845   5.282   1.220   6.132  0.4040 -1.4470 -1.7629
 3882SOL     H237846   5.251   1.237   5.985 -2.6915  0.0831 -0.9892
 3883SOL    OH237847   4.585   2.634   0.180  0.0779 -0.3707  0.1574
 3883SOL     H137848   4.668   2.654   0.137  0.1691 -1.6179 -0.2843
 3883SOL     H237849   4.518   2.670   0.122  0.2199 -1.6423 -0.8349
 3884SOL    OH237850   5.832   5.216   6.627 -0.4064  0.4742 -0.3852
 3884SOL     H137851   5.796   5.133   6.596 -0.2472  0.2997 -0.1029
 3884SOL     H237852   5.758   5.277   6.624 -0.7562  0.0887  0.3035
 3885SOL    OH237853   4.259   7.678   0.230 -0.1036  0.1453 -0.2166
 3885SOL     H137854   4.320   7.744   0.197  1.3073 -1.3797 -0.7256
 3885SOL     H237855   4.216   7.643   0.152 -0.6980  0.3102  0.0328
 3886SOL    OH237856   7.036   2.702   1.592 -0.9064 -0.0179 -0.4629
 3886SOL     H137857   7.058   2.616   1.556 -1.4018  0.0819 -0.9998
 3886SOL     H237858   7.018   2.756   1.516  1.3772  1.1215 -0.2324
 3887SOL    OH237859   4.655   0.458   0.928 -0.2692  0.3931  0.6075
 3887SOL     H137860   4.572   0.438   0.885 -0.4899  0.9265  0.7717
 3887SOL     H237861   4.654   0.406   1.009 -0.9304  1.2102  1.1341
 3888SOL    OH237862   2.926   5.297   0.862  0.2631  0.0971 -0.1105
 3888SOL     H137863   2.876   5.237   0.807  1.8487 -0.0944 -1.3998
 3888SOL     H237864   3.003   5.319   0.809  1.0235  1.1764  1.4055
 3889SOL    OH237865   0.493   3.714   0.258  0.3368 -0.3229 -0.0754
 3889SOL     H137866   0.540   3.745   0.335  1.0325 -0.0462 -0.6085
 3889SOL     H237867   0.501   3.618   0.262  0.3309 -0.3113  0.2196
 3890SOL    OH237868   4.128   5.998   0.232 -0.2849  0.0724  0.2762
 3890SOL     H137869   4.069   6.052   0.179  0.7454  0.9572  0.0043
 3890SOL     H237870   4.215   6.036   0.217  0.1398 -0.2219  1.9067
 3891SOL    OH237871   5.863   2.826   0.287 -0.1138 -0.0395  0.2919
 3891SOL     H137872   5.778   2.813   0.246  0.0959 -0.9575  0.1234
 3891SOL     H237873   5.864   2.918   0.313 -1.3626 -0.1589  0.7776
 3892SOL    OH237874   0.113   5.809   2.650  0.1629  0.0477  0.7800
 3892SOL     H137875   0.139   5.738   2.708  0.8327 -0.8503 -0.5897
 3892SOL     H237876   0.193   5.859   2.636 -0.4541  1.4828  2.2778
 3893SOL    OH237877   0.209   1.732   1.129  0.9653 -0.5065 -0.0301
 3893SOL     H137878   0.228   1.709   1.038  0.2990 -2.2146  0.2530
 3893SOL     H237879   0.129   1.784   1.125  1.9394  1.0152 -0.5710
 3894SOL    OH237880   4.721   3.577   0.638 -0.6176  0.3440 -0.3873
 3894SOL     H137881   4.805   3.532   0.640 -0.3438  0.8732  0.2974
 3894SOL     H237882   4.735   3.651   0.580 -0.4036  0.8230  0.2677
 3895SOL    OH237883   2.393   3.763   7.412  0.4058 -0.2824  0.6034
 3895SOL     H137884   2.348   3.827   7.468 -2.1775 -2.4635  1.1497
 3895SOL     H237885   2.440   3.707   7.474  1.5406  0.2237  0.2152
 3896SOL    OH237886   6.779   4.174   1.344  0.4757  0.2840  0.6544
 3896SOL     H137887   6.700   4.181   1.397  0.6847  0.6676  0.9215
 3896SOL     H237888   6.749   4.187   1.254  0.2121  0.2707  0.7407
 3897SOL    OH237889   4.634   4.010   0.295 -0.1172 -0.1352 -0.3205
 3897SOL     H137890   4.660   3.972   0.211 -0.0295 -0.4238 -0.1597
 3897SOL     H237891   4.712   4.055   0.325 -0.2153  0.1605 -0.4998
 3898SOL    OH237892   4.360   5.641   5.892  0.7633  0.1674 -0.2146
 3898SOL     H137893   4.409   5.641   5.810  1.2909 -2.0223  0.0826
 3898SOL     H237894   4.332   5.550   5.904  2.6747 -0.0428  3.2107
 3899SOL    OH237895   7.202   5.943   6.524  0.2635  0.0491  0.4247
 3899SOL     H137896   7.293   5.939   6.555  0.1857  2.1151  1.0131
 3899SOL     H237897   7.207   5.987   6.439 -0.2251  0.6338  0.6933
 3900SOL    OH237898   3.239   2.262   0.991 -0.6682 -0.4219 -0.7823
 3900SOL     H137899   3.271   2.172   0.995  2.0961  0.4620 -2.1841
 3900SOL     H237900   3.287   2.307   1.060  0.4425  0.7215 -2.2887
 3901SOL    OH237901   5.052   6.513   7.532 -0.7142 -0.3264 -0.0299
 3901SOL     H137902   5.133   6.559   7.507 -0.3055 -1.1342 -0.2231
 3901SOL     H237903   5.059   6.503   7.627  0.3664 -2.1619 -0.2921
 3902SOL    OH237904   3.206   4.259   2.290  0.2752  0.3333  0.4485
 3902SOL     H137905   3.146   4.324   2.327 -1.1103 -1.0185  0.6320
 3902SOL     H237906   3.240   4.299   2.210 -1.6536  0.7179 -0.1911
 3903SOL    OH237907   5.379   4.268   2.399 -0.1864  0.0115 -0.7300
 3903SOL     H137908   5.333   4.184   2.403 -0.9247  0.3195 -2.5896
 3903SOL     H237909   5.451   4.253   2.338  0.2737  0.4575 -0.2994
 3904SOL    OH237910   0.714   3.631   7.243 -0.7412  0.6094 -0.1763
 3904SOL     H137911   0.627   3.629   7.285 -1.6713  2.0810 -1.9311
 3904SOL     H237912   0.766   3.687   7.300 -1.3359  0.7778  0.2161
 3905SOL    OH237913   6.150   2.442   0.845  0.8682  0.4290  0.0118
 3905SOL     H137914   6.092   2.379   0.888  1.1919  0.3068  0.2715
 3905SOL     H237915   6.199   2.483   0.917  2.8555 -1.1997 -0.3477
 3906SOL    OH237916   6.161   7.364   6.927 -0.2285  0.4185 -0.3810
 3906SOL     H137917   6.147   7.367   7.022 -2.0099  0.8906 -0.6566
 3906SOL     H237918   6.236   7.422   6.913 -0.6370  1.2165  0.6213
 3907SOL    OH237919   5.020   5.788   2.482  0.1055  0.1165  0.2839
 3907SOL     H137920   5.012   5.828   2.395 -0.4539  0.2646  0.4011
 3907SOL     H237921   5.087   5.840   2.526  0.6392 -0.1741 -0.1777
 3908SOL    OH237922   7.278   7.042   8.087  0.3944 -0.5367  0.2008
 3908SOL     H137923   7.277   6.947   8.081  1.6662 -0.5735  0.4958
 3908SOL     H237924   7.325   7.061   8.169  1.1734  0.3532 -0.4315
 3909SOL    OH237925   3.503   2.787   7.802  0.6305 -0.2930  0.0083
 3909SOL     H137926   3.563   2.745   7.864 -0.1421 -0.0652  0.9326
 3909SOL     H237927   3.425   2.731   7.803  0.1243  0.4128  0.2070
 3910SOL    OH237928   1.006   4.658   1.012  0.1183 -0.1823 -0.8372
 3910SOL     H137929   1.078   4.599   1.036  0.2051 -0.0022 -0.6530
 3910SOL     H237930   0.974   4.624   0.929 -0.6182 -1.2345 -0.1505
 3911SOL    OH237931   1.790   0.576   7.454  0.0706  0.0962 -0.1203
 3911SOL     H137932   1.828   0.640   7.395 -0.8281  0.2773 -0.5058
 3911SOL     H237933   1.701   0.561   7.421 -0.5907  0.4998  1.3925
 3912SOL    OH237934   6.747   7.346   1.527 -0.0848  0.2973  0.0701
 3912SOL     H137935   6.832   7.369   1.488 -0.0393 -0.6952 -0.4341
 3912SOL     H237936   6.699   7.305   1.455 -0.3051 -0.8100  0.8483
 3913SOL    OH237937   5.437   6.186   1.853  0.5939 -0.4509 -0.0057
 3913SOL     H137938   5.488   6.132   1.913  0.4264  0.3935  0.9199
 3913SOL     H237939   5.359   6.210   1.903 -0.2299 -0.9170 -1.0660
 3914SOL    OH237940   4.475   6.058   6.954  0.0961  0.2471 -0.2773
 3914SOL     H137941   4.494   6.143   6.994 -0.4645  0.9761 -1.5060
 3914SOL     H237942   4.393   6.030   6.996 -0.3762  0.9092 -0.7311
 3915SOL    OH237943   3.859   6.995   8.092 -0.1351  0.1592  0.3389
 3915SOL     H137944   3.841   6.940   8.016 -0.4562 -0.1096  0.6097
 3915SOL     H237945   3.923   6.946   8.144  0.0568  0.3265  0.2619
 3916SOL    OH237946   3.771   3.913   0.080 -0.0817  0.3359 -0.2197
 3916SOL     H137947   3.699   3.856   0.054  0.2197  0.2277 -0.8191
 3916SOL     H237948   3.741   3.954   0.161 -0.7843  0.2367 -0.4258
 3917SOL    OH237949   7.625   1.052   1.979 -0.1704 -0.1419  0.6515
 3917SOL     H137950   7.713   1.018   1.998 -0.1482 -0.9944 -0.8172
 3917SOL     H237951   7.575   1.035   2.058  0.8626 -0.1269  1.3201
 3918SOL    OH237952   0.536   3.084   0.021  0.0305 -0.7874  0.2353
 3918SOL     H137953   0.591   3.159  -0.002 -1.2071  0.5988  1.6426
 3918SOL     H237954   0.498   3.107   0.106  0.7243 -3.6502  1.3708
 3919SOL    OH237955   4.045   1.181   6.586  0.1967 -0.2522 -0.5731
 3919SOL     H137956   3.956   1.146   6.586 -0.1943  0.7023  0.4050
 3919SOL     H237957   4.092   1.129   6.521 -1.0379 -0.8622 -0.9821
 3920SOL    OH237958   1.914   6.816   7.890  0.3291  0.2362 -0.6355
 3920SOL     H137959   1.906   6.813   7.985  1.3829  1.1646 -0.5113
 3920SOL     H237960   1.872   6.736   7.860 -1.8211  0.9070  0.4873
 3921SOL    OH237961   5.301   7.636   2.066 -0.2022 -0.4826 -0.2029
 3921SOL     H137962   5.385   7.643   2.022 -0.6443 -2.2743 -1.4152
 3921SOL     H237963   5.256   7.718   2.047  1.6962  0.9947  1.4563
 3922SOL    OH237964   0.883   2.398   6.013  0.1763 -0.1107 -0.1320
 3922SOL     H137965   0.974   2.427   6.021  0.7769 -2.0143  0.1501
 3922SOL     H237966   0.866   2.397   5.918  1.2776 -2.1740 -0.3325
 3923SOL    OH237967   3.075   1.042   8.110 -0.7966 -0.2244  0.0132
 3923SOL     H137968   3.117   1.069   8.192  0.5418  0.3561 -0.8484
 3923SOL     H237969   3.040   1.123   8.073 -1.6605 -0.5291  0.1278
 3924SOL    OH237970   4.934   7.214   2.053 -0.2286  0.4960 -0.6871
 3924SOL     H137971   4.976   7.183   1.973 -0.3161  0.2093 -0.6236
 3924SOL     H237972   5.006   7.227   2.115 -0.0823  1.4580 -1.0521
 3925SOL    OH237973   5.625   6.585   6.022  0.7262 -0.4138 -0.5453
 3925SOL     H137974   5.686   6.516   6.048 -0.4006 -1.2540 -0.0907
 3925SOL     H237975   5.540   6.541   6.014  0.1943  0.7155 -1.2805
 3926SOL    OH237976   5.641   7.160   0.416  0.3286  0.1975 -0.8019
 3926SOL     H137977   5.707   7.129   0.353 -0.0764 -0.2496 -1.0078
 3926SOL     H237978   5.662   7.253   0.429  2.2681 -0.4159  0.7017
 3927SOL    OH237979   7.719   5.939   2.408 -0.3837  0.1162 -0.0317
 3927SOL     H137980   7.763   5.973   2.486 -0.7583 -1.3164  0.8098
 3927SOL     H237981   7.745   5.848   2.403 -1.8656 -0.2974 -0.5083
 3928SOL    OH237982   6.993   6.717   0.599  0.3933 -0.2563  0.2794
 3928SOL     H137983   7.065   6.659   0.574  0.7134  0.8164 -1.3561
 3928SOL     H237984   7.035   6.801   0.618 -0.3413  0.1846  0.0002
 3929SOL    OH237985   4.153   3.093   8.076 -0.0286  0.0828  0.4065
 3929SOL     H137986   4.247   3.080   8.078 -0.1768 -0.8739  2.2752
 3929SOL     H237987   4.140   3.176   8.123 -0.0582  0.7870 -0.8043
 3930SOL    OH237988   5.447   6.547   7.000 -0.1035 -0.1381 -0.7125
 3930SOL     H137989   5.433   6.583   7.087  0.1330 -0.1570 -0.6649
 3930SOL     H237990   5.366   6.565   6.953 -0.7538 -1.3363 -0.0762
 3931SOL    OH237991   6.308   6.062   6.283 -0.3723 -0.1720  0.1639
 3931SOL     H137992   6.302   5.966   6.280 -0.0565 -0.1616 -1.0106
 3931SOL     H237993   6.354   6.080   6.364  1.6674 -1.1394 -0.7361
 3932SOL    OH237994   6.993   5.205   2.842  0.0812  0.3131  0.5509
 3932SOL     H137995   6.953   5.283   2.879 -1.8481  0.3408 -1.5051
 3932SOL     H237996   7.031   5.234   2.759  0.2861 -0.7240  0.2729
 3933SOL    OH237997   7.750   2.667   7.870 -0.3339  0.3646  0.2561
 3933SOL     H137998   7.746   2.584   7.917  1.3149 -0.0752 -0.3573
 3933SOL     H237999   7.701   2.728   7.925 -1.4032 -0.9546  0.7997
 3934SOL    OH238000   3.872   2.792   2.015 -0.8474  0.0989 -0.1801
 3934SOL     H138001   3.941   2.776   1.951 -0.1773  2.6902 -0.1483
 3934SOL     H238002   3.796   2.747   1.980 -0.2719  0.8001 -2.3901
 3935SOL    OH238003   4.442   5.258   0.913 -0.4247  0.1021 -0.4738
 3935SOL     H138004   4.354   5.292   0.930 -0.8045 -1.3277  0.5133
 3935SOL     H238005   4.428   5.176   0.864  0.3946  0.2770 -1.0257
 3936SOL    OH238006   3.456   5.303   7.538  0.2180 -0.5032  0.2979
 3936SOL     H138007   3.440   5.266   7.625  0.0482 -0.6204  0.2178
 3936SOL     H238008   3.426   5.235   7.477 -1.0966  0.1928  0.1448
 3937SOL    OH238009   3.837   3.330   7.537  0.3579 -0.0687  0.0451
 3937SOL     H138010   3.797   3.243   7.537  1.3167 -0.5251  0.6719
 3937SOL     H238011   3.768   3.389   7.507 -0.2268 -1.0804 -0.6175
 3938SOL    OH238012   3.520   0.783   7.599  0.2586 -0.6031 -0.3881
 3938SOL     H138013   3.437   0.816   7.633  0.1157 -0.4810 -0.8450
 3938SOL     H238014   3.586   0.846   7.629 -0.0266  0.1648 -1.3528
 3939SOL    OH238015   3.634   5.307   8.129 -1.0322  0.4091  0.3328
 3939SOL     H138016   3.583   5.388   8.127 -1.9839 -0.1944 -0.5319
 3939SOL     H238017   3.575   5.242   8.168  0.0898  0.3588  2.0182
 3940SOL    OH238018   2.132   3.168   1.255  0.1458  0.2886 -0.3060
 3940SOL     H138019   2.097   3.184   1.342  2.2621  0.3928  0.5477
 3940SOL     H238020   2.083   3.228   1.198  0.0516  1.5839  1.1000
 3941SOL    OH238021   0.493   2.885   0.711  0.3179  0.3984 -0.5878
 3941SOL     H138022   0.520   2.970   0.675  1.1609 -0.5148 -2.1701
 3941SOL     H238023   0.546   2.821   0.663  0.6014 -0.9573  1.4563
 3942SOL    OH238024   3.454   2.267   0.431  0.0877  0.5173 -0.2502
 3942SOL     H138025   3.380   2.209   0.415  0.1128  0.4550 -0.1393
 3942SOL     H238026   3.510   2.258   0.354  1.3181 -1.4501  0.8465
 3943SOL    OH238027   1.711   5.098   8.062  0.1742 -0.3994  0.1807
 3943SOL     H138028   1.641   5.117   8.125 -0.9634  0.5354 -1.3196
 3943SOL     H238029   1.753   5.183   8.046 -2.4038  0.2942 -3.5974
 3944SOL    OH238030   5.006   5.492   1.403 -0.3031  0.3898  0.5209
 3944SOL     H138031   4.920   5.505   1.441 -0.6961 -2.2542  0.5972
 3944SOL     H238032   4.989   5.459   1.315  0.6161 -0.6132  0.7061
 3945SOL    OH238033   6.768   0.148   1.302  0.1695  1.2346 -0.6130
 3945SOL     H138034   6.845   0.127   1.355  0.4175  0.0835 -1.4009
 3945SOL     H238035   6.757   0.242   1.312  1.0528  1.2530  0.3458
 3946SOL    OH238036   2.886   1.010   6.617 -0.3602  0.1671  0.2496
 3946SOL     H138037   2.868   1.006   6.711 -2.1088 -1.1179 -0.1156
 3946SOL     H238038   2.977   0.981   6.609  0.1757  1.3535  1.6297
 3947SOL    OH238039   4.138   2.367   0.439 -0.5852 -0.2173  0.3413
 3947SOL     H138040   4.201   2.322   0.496 -0.7114 -0.6499  0.1420
 3947SOL     H238041   4.101   2.436   0.494 -1.4695 -1.2923  1.1282
 3948SOL    OH238042   4.709   4.164   7.084 -0.4289 -0.3083  0.0144
 3948SOL     H138043   4.785   4.110   7.107 -0.9343 -1.0916 -0.1756
 3948SOL     H238044   4.682   4.133   6.998 -1.0009 -0.0527  0.0981
 3949SOL    OH238045   0.698   0.597   1.468 -0.5264  0.5015 -0.8511
 3949SOL     H138046   0.697   0.692   1.479 -0.3008  0.2007  2.1944
 3949SOL     H238047   0.762   0.581   1.399  1.2915  2.4542  0.3287
 3950SOL    OH238048   6.733   4.251   7.161  0.3644  0.0868 -0.7190
 3950SOL     H138049   6.804   4.200   7.122  0.4707 -0.9232  0.7686
 3950SOL     H238050   6.657   4.192   7.158  0.6100 -0.3767  1.4684
 3951SOL    OH238051   5.792   5.117   7.298 -0.5018 -0.3675 -0.5590
 3951SOL     H138052   5.808   5.070   7.380 -0.1966 -0.0782 -0.4515
 3951SOL     H238053   5.814   5.055   7.229 -1.5334 -0.8907 -0.4295
 3952SOL    OH238054   3.708   1.818   6.321 -0.4285 -0.6367  0.2280
 3952SOL     H138055   3.665   1.734   6.301 -1.1069 -0.2959  0.2288
 3952SOL     H238056   3.653   1.884   6.277  0.9235 -0.3055 -1.0053
 3953SOL    OH238057   7.266   7.091   1.161  0.5916 -0.0290  0.0735
 3953SOL     H138058   7.359   7.101   1.139  0.7302 -0.4609  0.4603
 3953SOL     H238059   7.222   7.159   1.109  1.0640 -0.1594 -0.5046
 3954SOL    OH238060   7.003   2.051   2.571  0.2777 -0.2323  0.0172
 3954SOL     H138061   7.081   2.009   2.535  0.5788  0.3271  0.0031
 3954SOL     H238062   7.004   2.029   2.664  0.4870 -0.1794  0.0279
 3955SOL    OH238063   7.539   4.779   1.591 -0.2770  0.3297  0.2696
 3955SOL     H138064   7.568   4.808   1.504  0.7112 -1.7527 -0.1207
 3955SOL     H238065   7.465   4.835   1.611  0.1118  1.5161 -1.4939
 3956SOL    OH238066   4.731   6.431   1.094  0.1990  0.2634  0.4025
 3956SOL     H138067   4.765   6.445   1.182 -0.2508 -1.0376  0.7850
 3956SOL     H238068   4.765   6.346   1.067 -2.0185 -0.6733  0.4568
 3957SOL    OH238069   1.891   2.217   1.115  0.2799 -0.1418  0.5782
 3957SOL     H138070   1.927   2.230   1.203  2.7234  0.5786 -0.4729
 3957SOL     H238071   1.920   2.129   1.090 -0.3862 -0.3350  0.4906
 3958SOL    OH238072   7.490   1.896   2.397 -0.1157 -0.4095 -0.4558
 3958SOL     H138073   7.480   1.900   2.302 -0.5701  0.7805 -0.3624
 3958SOL     H238074   7.561   1.832   2.410 -0.0081 -0.5436 -1.5875
 3959SOL    OH238075   1.045   7.817   7.875  0.3675  0.0409 -0.9673
 3959SOL     H138076   0.994   7.852   7.802 -0.4653  1.1925  0.1355
 3959SOL     H238077   0.980   7.784   7.937  1.0743 -1.1505 -0.8427
 3960SOL    OH238078   5.457   0.204   0.933  0.6860  0.1669  0.3514
 3960SOL     H138079   5.413   0.211   0.849  0.5359  2.5613  0.6087
 3960SOL     H238080   5.548   0.182   0.911  0.5809  0.4900 -0.4027
 3961SOL    OH238081   0.618   5.068   6.206  0.3598  0.0511  0.2888
 3961SOL     H138082   0.551   5.005   6.234  0.4295 -0.0519  0.2240
 3961SOL     H238083   0.696   5.044   6.256  0.2621  0.3624  0.5926
 3962SOL    OH238084   4.584   4.587   6.433 -0.4670  0.5013 -0.1986
 3962SOL     H138085   4.665   4.609   6.479  0.4893 -0.7261 -1.2584
 3962SOL     H238086   4.594   4.626   6.347 -0.5375 -0.5434 -0.6899
 3963SOL    OH238087   5.950   0.612   6.803 -0.6144  0.7215  0.1045
 3963SOL     H138088   5.964   0.628   6.897 -2.9279  0.9289  0.4618
 3963SOL     H238089   6.028   0.565   6.775  1.6358  3.5626  1.3670
 3964SOL    OH238090   4.639   6.722   7.953 -0.2213  0.5802  0.0203
 3964SOL     H138091   4.718   6.743   7.903  1.5420  1.4094  3.0324
 3964SOL     H238092   4.626   6.797   8.010 -0.3922 -1.5784  2.9308
 3965SOL    OH238093   5.125   1.093   8.225 -0.3971 -0.4566  0.6178
 3965SOL     H138094   5.038   1.077   8.260 -0.7267  0.0221  0.0283
 3965SOL     H238095   5.175   1.125   8.300 -1.2827  1.2252  0.5056
 3966SOL    OH238096   3.596   0.973  -0.011  0.1210  0.5407  0.2136
 3966SOL     H138097   3.540   1.030   0.042 -0.3518  2.2261 -2.0289
 3966SOL     H238098   3.642   0.919   0.053 -0.1420  2.7782  2.3923
 3967SOL    OH238099   6.012   3.762   8.112 -0.1951  0.0585 -0.3202
 3967SOL     H138100   6.047   3.708   8.183 -1.0416  1.6101  1.3346
 3967SOL     H238101   6.088   3.780   8.057  1.3569  2.0297  2.3246
 3968SOL    OH238102   7.641   6.704   6.243 -0.1034 -0.0409  0.0667
 3968SOL     H138103   7.684   6.773   6.293  0.6867 -0.8424  0.4989
 3968SOL     H238104   7.636   6.630   6.303  0.6340 -0.9320 -0.9536
 3969SOL    OH238105   3.095   6.472   6.376  0.4664 -0.0677 -0.4081
 3969SOL     H138106   3.067   6.399   6.430 -0.6252 -0.7591 -1.8725
 3969SOL     H238107   3.169   6.511   6.424 -0.9845 -0.1476  1.9449
 3970SOL    OH238108   1.900   0.418   1.338 -0.1373  0.4193 -0.0421
 3970SOL     H138109   1.825   0.411   1.280 -0.3679 -1.1124  0.4209
 3970SOL     H238110   1.965   0.359   1.301 -0.9953 -2.0830  2.3007
 3971SOL    OH238111   6.826   2.826   6.774 -0.3967 -0.0226  0.1316
 3971SOL     H138112   6.827   2.793   6.864 -0.7094  0.5383  0.3442
 3971SOL     H238113   6.906   2.878   6.767 -0.2247 -0.3034 -0.0059
 3972SOL    OH238114   5.254   2.922   7.992 -0.0516 -0.1574 -0.1465
 3972SOL     H138115   5.287   2.989   8.052  0.8787 -1.5905  1.0072
 3972SOL     H238116   5.304   2.843   8.015 -0.0181 -0.8609 -2.5055
 3973SOL    OH238117   3.319   6.884   6.809  0.1511 -0.4087 -0.0872
 3973SOL     H138118   3.264   6.905   6.885 -0.7864  1.2193 -1.1915
 3973SOL     H238119   3.257   6.863   6.739  0.9845 -0.6036 -0.7805
 3974SOL    OH238120   1.816   6.425   7.889  0.0295 -0.0052 -0.3438
 3974SOL     H138121   1.852   6.418   7.801  0.9060 -2.6809  0.1641
 3974SOL     H238122   1.726   6.395   7.880  0.1524 -0.3873 -0.3333
 3975SOL    OH238123   3.284   1.747   0.287  0.1220 -0.2997  0.2605
 3975SOL     H138124   3.193   1.776   0.291  0.5591  1.1626 -0.0659
 3975SOL     H238125   3.288   1.692   0.209 -0.2539  0.4588 -0.2967
 3976SOL    OH238126   3.935   0.873   6.648 -0.6171 -0.8119  0.1917
 3976SOL     H138127   4.024   0.875   6.682 -0.7793 -1.4925  0.6805
 3976SOL     H238128   3.902   0.786   6.673 -1.9779  0.0541  1.4717
 3977SOL    OH238129   7.940   5.494   7.561  0.7457 -0.2880 -0.5021
 3977SOL     H138130   8.014   5.528   7.511  0.6386 -0.5445 -0.8355
 3977SOL     H238131   7.878   5.566   7.566  1.1615  0.0353  0.0641
 3978SOL    OH238132   4.403   4.129   7.096 -0.1243 -0.2650  0.0667
 3978SOL     H138133   4.450   4.212   7.092  0.3145 -0.4815  0.6509
 3978SOL     H238134   4.452   4.071   7.038  0.0179 -0.3349  0.2548
 3979SOL    OH238135   5.185   0.313   7.605  0.0550 -0.6929  0.1084
 3979SOL     H138136   5.187   0.346   7.515  0.5433  1.1148  0.7487
 3979SOL     H238137   5.158   0.222   7.597 -0.7051 -0.3258 -1.8049
 3980SOL    OH238138   7.147   1.767   6.556  0.0483  0.0573 -0.0492
 3980SOL     H138139   7.154   1.832   6.486  1.3693 -0.3779 -0.3309
 3980SOL     H238140   7.111   1.816   6.630 -0.5236  0.7200 -0.7556
 3981SOL    OH238141   6.530   5.371   6.649 -0.4529  0.0590  0.2957
 3981SOL     H138142   6.606   5.372   6.707 -2.2531 -0.3985  2.7575
 3981SOL     H238143   6.566   5.355   6.562  2.3370  0.8170  1.2725
 3982SOL    OH238144   5.456   0.455   2.281  0.3343 -0.6863  0.4503
 3982SOL     H138145   5.539   0.484   2.245  0.1598 -0.0072  0.5879
 3982SOL     H238146   5.473   0.442   2.374 -0.1895  1.3240  0.8493
 3983SOL    OH238147   5.273   1.555   2.035  0.2121 -0.4082  0.2494
 3983SOL     H138148   5.332   1.551   2.110 -0.6987  1.5072  1.1067
 3983SOL     H238149   5.255   1.463   2.013  2.3238 -1.0004  0.8834
 3984SOL    OH238150   6.193   3.635   6.156  0.4933 -0.2794 -0.1000
 3984SOL     H138151   6.123   3.578   6.125  0.5670 -0.3116 -0.2072
 3984SOL     H238152   6.269   3.578   6.162  0.3349 -0.4084  0.7193
 3985SOL    OH238153   7.136   0.247   1.971 -0.1308 -0.4224  0.1998
 3985SOL     H138154   7.104   0.208   1.890 -2.3116  0.1703  0.7407
 3985SOL     H238155   7.124   0.178   2.037  0.5440 -0.5090  0.2272
 3986SOL    OH238156   5.636   5.236   0.437 -0.2556  0.1011 -0.5051
 3986SOL     H138157   5.548   5.212   0.469  0.0265 -1.3416 -0.7591
 3986SOL     H238158   5.691   5.161   0.461  0.7955  0.7666 -0.8186
 3987SOL    OH238159   0.144   1.071   0.170 -0.4107 -0.4325 -0.1876
 3987SOL     H138160   0.201   1.027   0.234  1.2348  0.2663 -1.1375
 3987SOL     H238161   0.072   1.105   0.222  0.6145 -0.3624  1.2337
 3988SOL    OH238162   6.254   5.500   1.526 -0.0378  0.1105  0.5095
 3988SOL     H138163   6.335   5.462   1.560  2.2355  3.4949 -0.8992
 3988SOL     H238164   6.262   5.493   1.431 -1.0583  1.1171  0.3363
 3989SOL    OH238165   6.735   6.067   7.996 -0.7832  0.4468 -0.2168
 3989SOL     H138166   6.801   6.126   7.959 -0.7433  0.7235  0.2764
 3989SOL     H238167   6.777   5.982   7.998  0.4212  1.0393  2.2048
 3990SOL    OH238168   3.019   3.558   7.021  0.0918 -0.1076  0.2110
 3990SOL     H138169   2.988   3.633   6.970  1.5298  0.4490  0.1164
 3990SOL     H238170   3.079   3.596   7.085  0.5867 -1.1446  0.3722
 3991SOL    OH238171   5.562   3.030   7.194 -0.1478 -0.2529  0.3892
 3991SOL     H138172   5.470   3.043   7.174  0.0251 -0.5682 -0.6330
 3991SOL     H238173   5.587   2.951   7.146  1.1199  0.8898 -0.8843
 3992SOL    OH238174   3.933   3.452   8.048  0.4171  0.0183  0.5957
 3992SOL     H138175   3.950   3.428   7.957 -2.2254  1.0025 -0.2125
 3992SOL     H238176   3.873   3.384   8.079 -0.7442  1.1110  0.7767
 3993SOL    OH238177   6.977   5.372   2.321 -0.0172  0.1311 -0.2211
 3993SOL     H138178   7.051   5.317   2.348 -1.1894  0.1664  3.3180
 3993SOL     H238179   7.017   5.456   2.297  1.5241 -1.3547 -3.1843
 3994SOL    OH238180   3.917   2.173   0.502 -0.1550  0.0102  0.0773
 3994SOL     H138181   3.937   2.147   0.413 -1.3395  1.2474 -0.5634
 3994SOL     H238182   3.829   2.139   0.518 -0.0509  0.0167  0.6777
 3995SOL    OH238183   0.034   5.496   2.304  0.5489 -0.2981  0.2450
 3995SOL     H138184   0.054   5.410   2.341 -1.0548 -0.9301 -0.3351
 3995SOL     H238185  -0.031   5.478   2.236  0.2500  1.3688  0.0873
 3996SOL    OH238186   2.594   5.786   1.606 -0.1888 -0.3463 -0.0903
 3996SOL     H138187   2.616   5.783   1.513 -0.8202 -0.3434 -0.2415
 3996SOL     H238188   2.676   5.765   1.651  0.2427  0.1606 -0.6344
 3997SOL    OH238189   5.476   5.556   1.271  0.0125 -0.2558  0.2714
 3997SOL     H138190   5.549   5.514   1.225 -0.2100  0.1034 -0.4099
 3997SOL     H238191   5.398   5.509   1.242 -0.0800 -0.3395  0.6484
 3998SOL    OH238192   5.816   0.581   7.403  0.7972  0.1143 -0.0861
 3998SOL     H138193   5.888   0.523   7.428  0.4273 -0.5979 -0.6645
 3998SOL     H238194   5.790   0.552   7.316 -1.9764 -1.4565  1.1678
 3999SOL    OH238195   3.133   2.984   1.589 -0.1246  0.1335  0.2477
 3999SOL     H138196   3.135   3.077   1.570  2.3305 -0.1834 -1.2525
 3999SOL     H238197   3.050   2.970   1.635 -1.4472  2.6806 -1.2779
 4000SOL    OH238198   4.446   6.547   0.158 -0.5347  0.2414 -0.3418
 4000SOL     H138199   4.510   6.618   0.155  0.8952 -0.9432  1.4198
 4000SOL     H238200   4.477   6.484   0.093 -0.4005  0.0780 -0.1211
 4001SOL    OH238201   3.746   0.421   0.428 -0.0726 -0.0942  0.4362
 4001SOL     H138202   3.716   0.393   0.341  0.3022  0.0158  0.2695
 4001SOL     H238203   3.779   0.509   0.414  0.0735 -0.1124  0.6721
 4002SOL    OH238204   0.201   0.643   0.991 -0.1629 -0.3017  0.6203
 4002SOL     H138205   0.115   0.683   0.986  0.4483  0.9894  0.2487
 4002SOL     H238206   0.243   0.685   1.067  0.9742  0.7384 -0.5691
 4003SOL    OH238207   1.931   2.650   7.990  0.0075 -0.3461  0.2600
 4003SOL     H138208   1.887   2.572   8.023  0.9854 -0.4292  1.4241
 4003SOL     H238209   1.915   2.716   8.058 -1.3681  0.6699 -1.0182
 4004SOL    OH238210   2.906   7.421   7.573 -0.7620 -1.1397  0.4368
 4004SOL     H138211   2.927   7.512   7.552 -1.3540 -0.9491  0.6287
 4004SOL     H238212   2.894   7.421   7.668 -0.5569 -1.4640  0.4643
 4005SOL    OH238213   4.980   2.970  -0.008  0.2699 -0.1047  0.0111
 4005SOL     H138214   5.014   3.041   0.047  1.4132  0.4404 -1.3485
 4005SOL     H238215   5.047   2.902  -0.001 -0.8149 -1.0691  1.2952
 4006SOL    OH238216   3.148   5.537   7.729 -0.2513  0.2851 -0.6210
 4006SOL     H138217   3.111   5.459   7.771  0.3486  0.1091 -0.4010
 4006SOL     H238218   3.189   5.585   7.801  1.4940 -0.4280 -1.1060
 4007SOL    OH238219   1.375   2.151   2.228  0.5065  0.0123 -0.5562
 4007SOL     H138220   1.450   2.210   2.217 -0.2095  0.9423 -0.5421
 4007SOL     H238221   1.409   2.065   2.205  1.5670  0.4332 -0.6073
 4008SOL    OH238222   2.343   4.032   0.679  0.3773 -0.1364  0.1912
 4008SOL     H138223   2.387   3.964   0.628  1.1778  0.3961  0.1567
 4008SOL     H238224   2.329   3.993   0.765  0.9362 -0.3124  0.2068
 4009SOL    OH238225   7.692   6.749   0.676 -0.2325  0.1054 -0.3955
 4009SOL     H138226   7.618   6.786   0.627 -0.2177 -0.6838 -1.0464
 4009SOL     H238227   7.730   6.685   0.615 -0.7827 -1.5783  0.9900
 4010SOL    OH238228   0.513   4.085   0.877  0.2931  0.3725 -0.3428
 4010SOL     H138229   0.470   4.047   0.800 -2.9111  1.5707  0.7495
 4010SOL     H238230   0.516   4.178   0.859  2.7376  0.3072 -0.4673
 4011SOL    OH238231   6.922   5.424   8.198 -0.0619 -0.7017 -0.1873
 4011SOL     H138232   6.849   5.469   8.241  0.7473  0.5463 -0.1355
 4011SOL     H238233   6.879   5.356   8.145 -1.2794  0.0780 -0.2321
 4012SOL    OH238234   0.749   5.585   1.194 -0.1462 -0.0321 -0.1714
 4012SOL     H138235   0.720   5.504   1.153  1.0493  0.5288 -2.2127
 4012SOL     H238236   0.708   5.654   1.141  0.1108  0.6999  0.5790
 4013SOL    OH238237   7.183   3.390   7.459 -0.6093  0.1126 -0.0717
 4013SOL     H138238   7.205   3.353   7.544  0.4820  1.3363  0.1896
 4013SOL     H238239   7.187   3.315   7.399  0.7349 -0.3475  0.5848
 4014SOL    OH238240   6.550   0.641   0.701 -0.5660 -0.9326  0.3235
 4014SOL     H138241   6.631   0.618   0.654  0.4649  1.6554  0.7699
 4014SOL     H238242   6.554   0.588   0.781  2.2711  1.3779  1.8023
 4015SOL    OH238243   5.383   3.710   0.685 -0.3899 -0.3523  0.8401
 4015SOL     H138244   5.416   3.760   0.610 -0.2002 -2.4539 -0.5263
 4015SOL     H238245   5.430   3.744   0.760  0.1551  1.1125 -0.1515
 4016SOL    OH238246   3.594   1.086   1.677  0.0449  0.0597 -0.1746
 4016SOL     H138247   3.521   1.135   1.715 -0.0074 -1.1923  1.3611
 4016SOL     H238248   3.658   1.154   1.653 -0.8728  1.0305  0.1029
 4017SOL    OH238249   4.140   0.473   1.731  0.3546 -0.7410 -0.5659
 4017SOL     H138250   4.105   0.529   1.801 -0.0825  1.4951 -2.5018
 4017SOL     H238251   4.146   0.387   1.771  0.6602  0.5744  2.4210
 4018SOL    OH238252   3.018   4.640   2.068  0.3047 -0.1423  0.1254
 4018SOL     H138253   3.090   4.679   2.018  0.6167 -2.1650 -1.0481
 4018SOL     H238254   2.943   4.644   2.008 -0.1775  0.5435  0.7718
 4019SOL    OH238255   7.071   5.977   6.062 -0.0761  0.1802  0.0598
 4019SOL     H138256   7.022   5.904   6.026 -0.7986  0.2586  0.8514
 4019SOL     H238257   7.149   5.984   6.007 -0.3365 -0.7477 -0.4320
 4020SOL    OH238258   2.878   7.583   1.366  0.0555  0.1308  0.3699
 4020SOL     H138259   2.964   7.556   1.398  0.6516  1.5443  0.0014
 4020SOL     H238260   2.895   7.662   1.314 -1.2932 -0.3533 -0.8374
 4021SOL    OH238261   5.081   3.998   8.047  0.0601  0.0428 -0.3342
 4021SOL     H138262   5.159   4.028   8.002 -0.3080 -0.9059 -1.6218
 4021SOL     H238263   5.009   4.019   7.987 -0.8333  1.9601  1.3143
 4022SOL    OH238264   3.594   1.972   6.879  0.4264  0.0947 -0.0489
 4022SOL     H138265   3.538   2.048   6.898  0.2377 -0.1451  0.3590
 4022SOL     H238266   3.664   1.978   6.944  0.0793 -0.4238  0.3732
 4023SOL    OH238267   7.858   2.998   6.553 -0.0033 -0.2411 -0.3830
 4023SOL     H138268   7.948   3.009   6.584 -0.5004  1.5819  0.5036
 4023SOL     H238269   7.860   3.028   6.463 -0.0139  1.1990  0.0866
 4024SOL    OH238270   1.027   2.187   8.189 -0.0717 -0.1969  0.7346
 4024SOL     H138271   1.109   2.136   8.191  0.1934 -0.0212 -2.7002
 4024SOL     H238272   0.961   2.124   8.159 -1.1624 -0.2243  3.0893
 4025SOL    OH238273   2.110   3.954   0.911 -0.1043  0.2225 -0.8889
 4025SOL     H138274   2.200   3.967   0.942 -0.4800  1.3812 -0.2329
 4025SOL     H238275   2.057   3.955   0.990 -0.9646  2.1696 -1.4619
 4026SOL    OH238276   1.679   0.293   6.854  0.1299 -0.5632  0.0595
 4026SOL     H138277   1.761   0.277   6.901 -0.3874  0.1341  1.2202
 4026SOL     H238278   1.628   0.349   6.913 -0.1367  1.1442 -1.7215
 4027SOL    OH238279   3.923   3.744   0.325 -0.2312  0.1009 -0.1042
 4027SOL     H138280   3.882   3.659   0.315 -3.7785  1.7075  0.0419
 4027SOL     H238281   3.909   3.788   0.241  3.7985 -0.2977 -1.0913
 4028SOL    OH238282   3.882   7.871   6.417 -0.6260 -0.1066  0.0755
 4028SOL     H138283   3.860   7.820   6.340  1.6016 -0.8463 -0.1171
 4028SOL     H238284   3.881   7.962   6.386 -2.0643 -0.2177 -0.2228
 4029SOL    OH238285   4.155   5.869   1.744  0.7437 -0.4174 -0.2364
 4029SOL     H138286   4.146   5.869   1.839 -1.6512  0.7045 -0.4168
 4029SOL     H238287   4.170   5.778   1.721  0.6981 -0.7945  1.1653
 4030SOL    OH238288   7.607   3.582   1.391 -0.4695 -0.4303  0.0810
 4030SOL     H138289   7.547   3.512   1.366  1.6891 -2.5717  0.6426
 4030SOL     H238290   7.692   3.553   1.358  0.8987  0.7881  2.3734
 4031SOL    OH238291   2.409   2.037   0.260 -0.1229 -0.1804 -0.2863
 4031SOL     H138292   2.342   1.969   0.262 -0.8813  0.5693  0.0428
 4031SOL     H238293   2.362   2.118   0.239  0.4082  0.6407  1.5673
 4032SOL    OH238294   3.618   6.693   2.195 -0.2389  0.3551 -0.3567
 4032SOL     H138295   3.650   6.604   2.179 -0.8126 -0.2987  2.0137
 4032SOL     H238296   3.526   6.689   2.172 -0.2162  0.4026 -0.4567
 4033SOL    OH238297   2.767   4.422   7.288 -0.0078  0.4334  0.0428
 4033SOL     H138298   2.681   4.387   7.263  1.2034 -1.0422 -2.2354
 4033SOL     H238299   2.795   4.365   7.360 -0.8279  0.7846  0.6513
 4034SOL    OH238300   1.632   0.537   0.149 -0.3088 -0.1513  0.0180
 4034SOL     H138301   1.572   0.464   0.134 -0.4154 -0.1268  0.3281
 4034SOL     H238302   1.628   0.552   0.243 -2.5916  2.2357 -0.4037
 4035SOL    OH238303   2.910   2.381   1.001 -0.2100 -0.0059  0.5364
 4035SOL     H138304   2.906   2.371   1.096 -1.4433 -2.5741  0.2354
 4035SOL     H238305   2.819   2.389   0.974 -0.1284 -2.9040 -0.7545
 4036SOL    OH238306   0.719   4.437   0.191  0.0049 -0.2399  0.3792
 4036SOL     H138307   0.655   4.501   0.222 -0.4290 -1.4029  1.9768
 4036SOL     H238308   0.779   4.425   0.265 -0.5624 -2.4586  0.5069
 4037SOL    OH238309   2.199   4.811   7.935  0.3396  0.0011  0.9909
 4037SOL     H138310   2.214   4.726   7.977  0.9105  0.8850  2.5870
 4037SOL     H238311   2.235   4.875   7.996  0.2598  1.3785 -0.3796
 4038SOL    OH238312   5.380   7.305   0.789  0.0337 -0.0096  0.1022
 4038SOL     H138313   5.437   7.256   0.848 -0.2151 -0.2828  0.1161
 4038SOL     H238314   5.440   7.355   0.733  0.2607  0.8015  1.0500
 4039SOL    OH238315   2.607   7.235   1.402 -0.8050 -0.6257 -0.0170
 4039SOL     H138316   2.568   7.322   1.410 -0.3067 -0.1789 -2.1294
 4039SOL     H238317   2.701   7.252   1.394 -0.9694 -1.0681 -3.8838
 4040SOL    OH238318   3.318   3.316   2.195 -0.5189  0.1240 -0.3285
 4040SOL     H138319   3.266   3.325   2.115 -2.0471  0.1091  0.6380
 4040SOL     H238320   3.379   3.390   2.193 -3.1238  2.3537  0.3571
 4041SOL    OH238321   3.873   4.894   7.504  0.1557 -0.0884  0.0212
 4041SOL     H138322   3.893   4.805   7.474  1.1279 -0.5696  2.0087
 4041SOL     H238323   3.783   4.889   7.537  0.6828 -0.6955  1.4051
 4042SOL    OH238324   6.219   2.740   2.267 -0.2091  0.1608 -0.6421
 4042SOL     H138325   6.256   2.824   2.295 -0.0260  0.0854 -0.6628
 4042SOL     H238326   6.179   2.704   2.346  0.6236 -0.2187 -0.3972
 4043SOL    OH238327   2.571   4.802   0.043 -0.4628  0.0654  0.5767
 4043SOL     H138328   2.599   4.890   0.067  1.4673  0.1256 -1.7547
 4043SOL     H238329   2.548   4.808  -0.050 -1.2903 -1.6544  0.6558
 4044SOL    OH238330   1.969   0.311   8.086  0.0415 -0.2168 -1.0816
 4044SOL     H138331   1.876   0.305   8.108 -0.1291  1.5318 -1.2634
 4044SOL     H238332   2.014   0.301   8.170 -0.2140 -2.8405 -1.2214
 4045SOL    OH238333   2.711   3.593   7.114  0.2171 -0.1297  0.1706
 4045SOL     H138334   2.692   3.530   7.045  1.9983 -1.3981  0.7898
 4045SOL     H238335   2.754   3.542   7.183  0.3908  1.4910  1.3076
 4046SOL    OH238336   0.531   3.527   0.524 -0.2609 -0.4422  0.4377
 4046SOL     H138337   0.505   3.456   0.583 -1.9324  0.2267  0.5186
 4046SOL     H238338   0.539   3.604   0.580 -0.2967 -0.1553  0.0501
 4047SOL    OH238339   3.386   5.558   6.726 -0.2936  0.1498  0.4368
 4047SOL     H138340   3.307   5.586   6.679 -0.0522  0.9041  0.4637
 4047SOL     H238341   3.380   5.463   6.730 -0.5968  0.1175 -0.6432
 4048SOL    OH238342   6.131   4.166   0.699  0.5771 -0.7646  0.2512
 4048SOL     H138343   6.120   4.216   0.617  0.5300 -1.9278 -0.4673
 4048SOL     H238344   6.044   4.132   0.718  0.8295 -1.4712  0.1478
 4049SOL    OH238345   0.789   3.880   7.903  0.0329  0.2443  0.1954
 4049SOL     H138346   0.781   3.973   7.882  1.7036  0.6558  1.3015
 4049SOL     H238347   0.728   3.867   7.976 -1.8656 -0.0482 -1.3908
 4050SOL    OH238348   0.233   3.548   0.573 -0.0304 -0.1414  0.3676
 4050SOL     H138349   0.312   3.515   0.530 -0.3525  0.1909 -0.4825
 4050SOL     H238350   0.171   3.563   0.501 -0.6485  0.2013  0.9705
 4051SOL    OH238351   5.842   3.094   7.314 -0.4474 -0.0903 -0.5229
 4051SOL     H138352   5.787   3.149   7.258  0.5099 -0.2482 -1.6225
 4051SOL     H238353   5.819   3.005   7.290 -1.1043 -0.1799  0.3943
 4052SOL    OH238354   3.603   2.341   6.657 -0.0526 -0.3121  0.6266
 4052SOL     H138355   3.526   2.302   6.698 -0.0322 -0.0804  0.8885
 4052SOL     H238356   3.626   2.281   6.586 -0.7708 -0.1199  0.2309
 4053SOL    OH238357   5.436   1.219   6.992 -0.0695 -0.2495  0.0148
 4053SOL     H138358   5.392   1.262   6.919  0.3144  0.9616  0.4704
 4053SOL     H238359   5.504   1.281   7.018 -0.8893 -0.1833  2.0828
 4054SOL    OH238360   3.091   3.460   1.986 -0.2514  0.1290  0.2590
 4054SOL     H138361   3.010   3.488   2.028  0.1721  0.2242  1.0234
 4054SOL     H238362   3.095   3.510   1.905 -1.2739 -0.3389 -0.0780
 4055SOL    OH238363   4.330   6.250   7.123 -0.0916  0.1000 -0.1237
 4055SOL     H138364   4.319   6.217   7.212 -1.1788 -0.1464 -0.3412
 4055SOL     H238365   4.257   6.211   7.074  0.9342 -0.3861 -1.2910
 4056SOL    OH238366   5.528   4.209   7.885  0.1457  0.0543 -0.8585
 4056SOL     H138367   5.552   4.117   7.873 -0.6785 -0.2928 -0.0131
 4056SOL     H238368   5.434   4.206   7.904  0.3156  0.9722  0.2214
 4057SOL    OH238369   3.557   3.276   7.949 -0.1966 -0.1739  0.1001
 4057SOL     H138370   3.522   3.192   7.921 -1.7618 -0.1465  1.8745
 4057SOL     H238371   3.613   3.255   8.024 -1.7881  0.4883  1.5110
 4058SOL    OH238372   5.989   5.196   0.358 -0.3675  0.3333  0.5937
 4058SOL     H138373   5.950   5.173   0.442  2.0246  0.6584  1.8381
 4058SOL     H238374   6.066   5.139   0.351  0.2405  1.2869 -0.7188
 4059SOL    OH238375   3.024   3.846   7.226  0.0912 -0.3382  0.2773
 4059SOL     H138376   2.943   3.811   7.188 -1.2814  2.9550 -0.0333
 4059SOL     H238377   3.032   3.801   7.310 -0.6424 -2.5999 -0.8222
 4060SOL    OH238378   7.124   2.033   1.515 -0.1736 -0.4251  0.1830
 4060SOL     H138379   7.112   2.012   1.422  0.6887 -0.2214  0.0261
 4060SOL     H238380   7.094   2.123   1.523 -1.5759 -0.8893  0.3837
 4061SOL    OH238381   6.515   7.196   6.775  0.0118 -0.5032  0.6491
 4061SOL     H138382   6.531   7.108   6.810  0.5888 -0.3926  0.6700
 4061SOL     H238383   6.424   7.215   6.797 -0.0084 -0.9533  0.9545
 4062SOL    OH238384   6.666   3.464   1.734  0.0403  0.1079 -0.1126
 4062SOL     H138385   6.727   3.390   1.728 -1.3020 -0.9470 -1.1198
 4062SOL     H238386   6.625   3.468   1.648 -2.6524 -0.3832  1.0873
 4063SOL    OH238387   2.269   4.809   0.012  0.3735 -0.3066 -0.4158
 4063SOL     H138388   2.220   4.736  -0.024 -1.8515  0.7647  0.3542
 4063SOL     H238389   2.348   4.769   0.048 -1.1226 -2.4391  0.6121
 4064SOL    OH238390   3.613   5.229   6.836  0.3534  0.1309  0.5896
 4064SOL     H138391   3.696   5.212   6.880  0.0372  0.8880  1.5053
 4064SOL     H238392   3.574   5.301   6.886 -0.0450  0.9566 -0.8974
 4065SOL    OH238393   5.116   4.639   0.423 -0.1144 -0.2028 -0.5111
 4065SOL     H138394   5.087   4.667   0.510 -0.3559  0.3884 -0.7746
 4065SOL     H238395   5.045   4.666   0.365  0.4846  0.2936 -1.0236
 4066SOL    OH238396   0.898   1.104   1.648 -0.0458  0.3842 -0.4973
 4066SOL     H138397   0.934   1.144   1.568  1.5150 -0.2400 -0.1297
 4066SOL     H238398   0.867   1.178   1.699 -0.6615  0.8260 -1.4846
 4067SOL    OH238399   3.160   6.538   8.053 -0.1752 -0.9023 -0.4215
 4067SOL     H138400   3.156   6.623   8.096 -2.3773 -0.3143 -1.7485
 4067SOL     H238401   3.227   6.548   7.986 -0.8424 -0.0475 -0.9558
 4068SOL    OH238402   3.321   7.166   0.594 -0.3418 -0.0984  0.6462
 4068SOL     H138403   3.246   7.169   0.534 -0.2959 -0.3904  0.5720
 4068SOL     H238404   3.341   7.257   0.612 -1.1191 -0.0242  1.1670
 4069SOL    OH238405   5.314   2.466   7.192 -0.2741  0.1369  0.0777
 4069SOL     H138406   5.237   2.409   7.196 -1.8255  2.2435  1.5393
 4069SOL     H238407   5.280   2.551   7.163  1.8398  0.5905 -1.1864
 4070SOL    OH238408   6.724   7.811  -0.024 -0.0304 -0.0871 -0.7206
 4070SOL     H138409   6.644   7.797   0.026  0.5476  0.5972  0.4141
 4070SOL     H238410   6.780   7.737  -0.000 -0.9558 -1.5347 -2.8575
 4071SOL    OH238411   3.378   0.100   5.905  0.0502  0.5589 -0.2292
 4071SOL     H138412   3.470   0.118   5.925  0.0294  0.1075  0.2894
 4071SOL     H238413   3.371   0.005   5.911 -0.5906  0.6419  0.3339
 4072SOL    OH238414   3.244   0.312   5.827  0.0857  0.3483  0.1520
 4072SOL     H138415   3.294   0.239   5.862  1.5056  2.1018  1.9326
 4072SOL     H238416   3.159   0.276   5.805  0.8201 -1.8484  0.8465
 4073SOL    OH238417   1.330   6.331   5.794  0.3889 -0.4241  0.1804
 4073SOL     H138418   1.266   6.329   5.865 -1.2879 -1.1655 -1.3124
 4073SOL     H238419   1.330   6.242   5.758  1.4845 -0.1594 -0.5162
 4074SOL    OH238420   5.523   6.743   1.286  0.0074  0.3352 -0.5598
 4074SOL     H138421   5.592   6.799   1.250  1.0506 -0.9272 -0.5946
 4074SOL     H238422   5.505   6.679   1.217  0.0171 -0.3727  0.0784
 4075SOL    OH238423   1.454   5.370   8.113  0.1696 -0.3246 -0.1258
 4075SOL     H138424   1.500   5.316   8.048 -0.9044 -0.7460 -0.5631
 4075SOL     H238425   1.432   5.450   8.066 -0.1984 -0.4367 -0.1494
 4076SOL    OH238426   5.003   6.816   6.175  0.3656  0.0313  0.1431
 4076SOL     H138427   4.977   6.842   6.087 -0.7989 -0.2250  0.4072
 4076SOL     H238428   4.928   6.768   6.210  0.0686  1.7775  1.9884
 4077SOL    OH238429   6.612   2.017   7.948 -0.4736  0.1335  0.7706
 4077SOL     H138430   6.556   2.001   7.872  1.3231 -1.1227 -0.3186
 4077SOL     H238431   6.696   2.044   7.911  0.0910  0.5589  2.3351
 4078SOL    OH238432   0.418   0.150   0.942  0.2850  0.2353  0.2004
 4078SOL     H138433   0.470   0.140   0.863  3.6230  0.1782  2.3032
 4078SOL     H238434   0.414   0.245   0.956  1.4272  0.1897  0.9830
 4079SOL    OH238435   3.581   6.125   2.331  0.4065 -0.0390 -0.1087
 4079SOL     H138436   3.580   6.031   2.345 -0.1017  0.3793  3.0516
 4079SOL     H238437   3.672   6.151   2.344  0.6787 -0.1655 -1.6803
 4080SOL    OH238438   1.804   1.304   7.526 -0.2306  0.0867 -0.3198
 4080SOL     H138439   1.881   1.248   7.522  0.4597  1.1550 -3.3123
 4080SOL     H238440   1.732   1.248   7.496 -0.2835 -0.3364  0.5779
 4081SOL    OH238441   2.973   5.928   1.585  0.0023 -0.2425 -0.2982
 4081SOL     H138442   3.012   6.015   1.575  0.4241 -0.4175 -0.1912
 4081SOL     H238443   2.952   5.901   1.495  1.1067 -0.5919 -0.4536
 4082SOL    OH238444   7.708   0.816   2.386  0.4475 -0.3484  0.4339
 4082SOL     H138445   7.676   0.782   2.303  0.5561 -1.1992  0.7316
 4082SOL     H238446   7.718   0.739   2.441  0.1379  0.2367  1.3232
 4083SOL    OH238447   0.337   0.343   8.103 -0.2100 -0.1551 -0.7514
 4083SOL     H138448   0.405   0.289   8.144 -0.8013 -0.1970  0.1853
 4083SOL     H238449   0.382   0.388   8.031  0.7649 -0.3241 -0.2536
 4084SOL    OH238450   5.280   5.103   7.831  0.5264 -0.2946 -0.1926
 4084SOL     H138451   5.302   5.176   7.889 -1.5508  0.6745 -0.5626
 4084SOL     H238452   5.326   5.122   7.750  2.0156 -0.7323  0.5253
 4085SOL    OH238453   6.254   7.604   2.415 -0.4393 -0.6504 -0.3620
 4085SOL     H138454   6.232   7.548   2.489 -0.8051 -0.1558 -0.0904
 4085SOL     H238455   6.324   7.661   2.447  0.1778 -1.1820 -0.7465
 4086SOL    OH238456   4.136   6.369   0.729 -0.4160 -0.1339 -0.1314
 4086SOL     H138457   4.131   6.292   0.672 -2.7624  0.3901 -0.6775
 4086SOL     H238458   4.137   6.443   0.668 -1.1379  0.3682  0.4722
 4087SOL    OH238459   6.918   1.894   2.850  0.1062  0.0481 -0.1703
 4087SOL     H138460   6.895   1.848   2.930  0.0792  0.2972 -0.0353
 4087SOL     H238461   6.960   1.828   2.795 -0.7739 -0.3603 -0.3483
 4088SOL    OH238462   5.032   2.524   7.435 -0.2208 -0.4593  0.1652
 4088SOL     H138463   5.097   2.489   7.496  0.8639 -0.7018 -1.1218
 4088SOL     H238464   5.079   2.533   7.352 -1.0420  2.1194 -0.0428
 4089SOL    OH238465   4.400   4.589   7.430 -0.0069 -0.2456 -0.0426
 4089SOL     H138466   4.466   4.520   7.424  0.2355  0.1232 -2.0676
 4089SOL     H238467   4.321   4.544   7.461  0.4737 -1.2098 -0.1948
 4090SOL    OH238468   5.176   1.714   1.307  0.0535  0.4707 -0.1700
 4090SOL     H138469   5.226   1.718   1.226 -1.0024 -0.4296 -0.8957
 4090SOL     H238470   5.153   1.805   1.327  0.4591  0.7088 -0.7959
 4091SOL    OH238471   7.495   3.375   1.069 -0.7482 -0.0359  0.1671
 4091SOL     H138472   7.441   3.393   1.146 -1.6757 -1.8616 -0.0311
 4091SOL     H238473   7.567   3.321   1.103 -1.0947 -0.7428 -0.2131
 4092SOL    OH238474   2.889   6.671   0.970  0.2590  0.7018 -0.6027
 4092SOL     H138475   2.951   6.701   0.905 -0.2518 -1.0927 -1.9646
 4092SOL     H238476   2.943   6.643   1.044  1.0152  0.0159 -1.4096
 4093SOL    OH238477   2.423   1.879   0.859 -0.5578  0.7162 -0.2097
 4093SOL     H138478   2.354   1.927   0.905 -1.2851  0.4299 -0.9794
 4093SOL     H238479   2.377   1.833   0.789  0.5562  1.3212 -1.3602
 4094SOL    OH238480   6.905   3.809   6.039  0.3815 -0.0381  0.4390
 4094SOL     H138481   6.916   3.891   5.990 -1.9905 -1.7237 -3.1315
 4094SOL     H238482   6.841   3.830   6.107  1.2678  1.5469  0.8027
 4095SOL    OH238483   2.213   7.820   7.278 -0.4033  0.2794 -0.5029
 4095SOL     H138484   2.279   7.862   7.223  0.8300 -0.1248  0.6367
 4095SOL     H238485   2.153   7.890   7.303  0.1181  0.8228 -0.7912
 4096SOL    OH238486   5.058   5.832   6.696 -0.0311 -0.5757 -0.0607
 4096SOL     H138487   5.153   5.838   6.700 -0.0331  0.1810 -0.9355
 4096SOL     H238488   5.040   5.769   6.626 -0.1809 -0.3310 -0.2435
 4097SOL    OH238489   4.672   6.321   7.606  0.4287 -0.0775  0.1003
 4097SOL     H138490   4.616   6.327   7.529  0.8146 -0.9074 -0.2558
 4097SOL     H238491   4.671   6.408   7.644  0.7383  0.4995 -1.2003
 4098SOL    OH238492   2.142   4.876   7.677  0.1655 -0.2299  0.0815
 4098SOL     H138493   2.159   4.842   7.765  1.0189  0.6490  0.2561
 4098SOL     H238494   2.086   4.952   7.691  0.7554  0.2355 -0.0998
 4099SOL    OH238495   1.387   1.548   7.572  0.5666  0.3044 -0.4287
 4099SOL     H138496   1.355   1.622   7.624  0.8594 -1.2437  2.0242
 4099SOL     H238497   1.474   1.529   7.608 -1.3679 -4.1958  2.3006
 4100SOL    OH238498   4.486   2.711   2.051 -0.2461 -0.0385 -0.9842
 4100SOL     H138499   4.546   2.756   1.992  0.5571  0.0365 -0.1149
 4100SOL     H238500   4.402   2.754   2.037  0.4346  1.4994 -0.4262
 4101SOL    OH238501   6.519   1.271   6.906  0.1908  0.7184  0.2827
 4101SOL     H138502   6.466   1.336   6.859 -0.2116 -1.6328 -2.6349
 4101SOL     H238503   6.456   1.203   6.930  1.3827 -0.7828 -0.7816
 4102SOL    OH238504   3.105   3.589   1.326  0.0917  0.2394 -0.2477
 4102SOL     H138505   3.192   3.600   1.288 -0.4282  0.1677 -1.5190
 4102SOL     H238506   3.089   3.671   1.373  0.8609  0.2350  0.0221
 4103SOL    OH238507   1.996   2.427   0.765  0.1596 -0.2381  0.2125
 4103SOL     H138508   2.039   2.451   0.848  0.5367 -0.0031 -0.0450
 4103SOL     H238509   1.956   2.509   0.735  0.2760 -0.2539  0.0151
 4104SOL    OH238510   0.514   4.806   0.734 -0.0063  0.3933 -0.0112
 4104SOL     H138511   0.542   4.882   0.786 -0.8845 -0.2039  1.3606
 4104SOL     H238512   0.426   4.787   0.766  0.1554 -1.1098 -0.4590
 4105SOL    OH238513   3.611   0.081   0.339  0.0534  0.1495 -0.0770
 4105SOL     H138514   3.626   0.154   0.278 -2.5389 -0.4687 -1.5548
 4105SOL     H238515   3.635   0.116   0.424  1.0076  2.0109 -1.0731
 4106SOL    OH238516   5.892   2.301   7.672 -0.9941 -0.0445  0.3595
 4106SOL     H138517   5.846   2.217   7.672 -1.3689  0.1543 -0.0954
 4106SOL     H238518   5.827   2.363   7.706 -1.3275  0.3699 -1.0032
 4107SOL    OH238519   4.405   7.197   1.019 -0.3622 -0.1585 -0.0870
 4107SOL     H138520   4.437   7.109   0.999  0.7550  0.1308  0.3839
 4107SOL     H238521   4.422   7.247   0.939 -0.7928 -0.3123 -0.2761
 4108SOL    OH238522   7.227   4.656   0.707  0.1214  0.2636  0.1202
 4108SOL     H138523   7.164   4.663   0.635 -1.4649  0.6832  1.5225
 4108SOL     H238524   7.273   4.740   0.707  1.2309 -0.3285 -1.3906
 4109SOL    OH238525   6.502   2.037   6.450  0.2294 -0.4732  0.1559
 4109SOL     H138526   6.440   2.082   6.508 -1.2975 -0.2985 -1.5776
 4109SOL     H238527   6.460   1.953   6.431  0.8805 -0.6747 -0.4162
 4110SOL    OH238528   1.184   0.171   0.048  0.2481  0.8466  0.2085
 4110SOL     H138529   1.259   0.117   0.020  0.1132  1.7089 -1.9303
 4110SOL     H238530   1.137   0.115   0.110  2.1570 -0.0590  0.8937
 4111SOL    OH238531   6.240   5.263   7.293  0.6176  0.1056 -0.3522
 4111SOL     H138532   6.215   5.337   7.238  1.4507 -1.1739 -2.4735
 4111SOL     H238533   6.335   5.269   7.299  0.5573  0.1144  0.8066
 4112SOL    OH238534   1.387   4.498   6.720  0.5964  0.0514 -0.1294
 4112SOL     H138535   1.468   4.465   6.758  0.1375  0.4930  1.2253
 4112SOL     H238536   1.415   4.537   6.637  1.4466 -1.7892 -0.7515
 4113SOL    OH238537   2.828   6.468   8.296 -0.9155  0.1682  0.0581
 4113SOL     H138538   2.844   6.460   8.202 -1.9676 -0.6851 -0.0676
 4113SOL     H238539   2.757   6.533   8.303 -0.6654  0.4185  0.2754
 4114SOL    OH238540   7.163   2.844   6.301  0.5443  0.5461  0.7108
 4114SOL     H138541   7.072   2.817   6.289  0.9185 -0.3955 -0.0909
 4114SOL     H238542   7.159   2.918   6.361 -0.8197  1.0009  0.0717
 4115SOL    OH238543   6.957   0.633   1.350  0.0946  0.2963  0.0842
 4115SOL     H138544   6.922   0.685   1.278 -1.8028  0.2220  0.9071
 4115SOL     H238545   6.936   0.684   1.429  2.3508  0.4941  0.5996
 4116SOL    OH238546   2.001   5.778   6.264  0.5273 -0.4187  0.6156
 4116SOL     H138547   2.002   5.786   6.169 -0.9464 -1.5488  0.4843
 4116SOL     H238548   1.950   5.854   6.293  0.6638 -0.2769  0.4907
 4117SOL    OH238549   2.190   6.031   6.576  0.2697  0.2566  0.3769
 4117SOL     H138550   2.143   6.018   6.658  1.0472  0.7087  0.9065
 4117SOL     H238551   2.139   6.097   6.529 -1.3458 -1.5603 -0.4485
 4118SOL    OH238552   3.589   6.625   6.635  0.2085  0.0879  0.0656
 4118SOL     H138553   3.556   6.638   6.546  2.0987  0.8593 -0.5424
 4118SOL     H238554   3.553   6.540   6.662  0.3372 -0.5570 -1.7601
 4119SOL    OH238555   0.669   7.365   0.932 -0.3734 -0.7696  0.4183
 4119SOL     H138556   0.689   7.412   0.851 -1.3291 -0.4037  0.3830
 4119SOL     H238557   0.739   7.390   0.992 -0.8637  0.7493  0.4009
 4120SOL    OH238558   4.294   5.328  -0.029 -0.3314 -0.0941 -0.3836
 4120SOL     H138559   4.251   5.268   0.032 -0.4564 -2.1003 -2.3835
 4120SOL     H238560   4.338   5.392   0.028 -2.3485 -0.5158  1.7575
 4121SOL    OH238561   5.015   3.178   1.038  0.6676 -0.1202 -0.7160
 4121SOL     H138562   5.045   3.092   1.008 -0.2480 -1.0297  0.8975
 4121SOL     H238563   4.925   3.163   1.067 -0.3708  1.9345 -2.7385
 4122SOL    OH238564   6.421   7.126   8.096  0.2799 -0.3756 -0.3593
 4122SOL     H138565   6.339   7.174   8.105 -1.5828 -3.7727  1.7917
 4122SOL     H238566   6.407   7.067   8.023  1.4241  0.1658 -1.0292
 4123SOL    OH238567   5.203   3.591   1.717 -0.5660 -0.4203 -0.1340
 4123SOL     H138568   5.276   3.645   1.686  0.5989 -1.4179  0.8112
 4123SOL     H238569   5.169   3.550   1.638  0.2376 -0.3566 -0.5224
 4124SOL    OH238570   1.263   2.299   0.980  0.2600 -0.7060 -0.0600
 4124SOL     H138571   1.212   2.324   0.902 -1.3447 -2.9381  0.2065
 4124SOL     H238572   1.343   2.261   0.945  1.1490  1.5578 -0.5270
 4125SOL    OH238573   0.685   0.449   8.175 -0.5980 -0.8036  0.6493
 4125SOL     H138574   0.746   0.455   8.249  0.9380  0.7875 -0.6764
 4125SOL     H238575   0.726   0.387   8.116 -1.0062 -0.8369  0.4016
 4126SOL    OH238576   6.029   2.019   7.885  0.7729 -0.2528  0.4896
 4126SOL     H138577   5.954   2.008   7.943 -1.7957 -1.2075 -2.8436
 4126SOL     H238578   5.993   2.060   7.806  3.4776 -1.8502 -1.6980
 4127SOL    OH238579   3.866   0.035   0.799  0.0332 -0.4465  0.6144
 4127SOL     H138580   3.877   0.044   0.705 -2.5684  0.5159  0.3587
 4127SOL     H238581   3.947   0.069   0.837  0.1980  1.2463 -1.1981
 4128SOL    OH238582   0.523   0.493   6.941 -0.4582 -0.1580  0.4125
 4128SOL     H138583   0.539   0.468   6.850 -0.1133 -0.3532  0.5258
 4128SOL     H238584   0.609   0.484   6.983 -1.0816 -2.2643  1.2729
 4129SOL    OH238585   5.043   4.392   1.245  0.3223  0.0035 -0.0378
 4129SOL     H138586   5.066   4.369   1.156 -0.4406 -1.2628  0.0798
 4129SOL     H238587   5.111   4.353   1.299 -1.2132 -2.4684  0.1966
 4130SOL    OH238588   6.409   2.080   7.713  0.2529 -0.1522  0.0305
 4130SOL     H138589   6.364   2.113   7.635 -0.8183 -2.2579 -0.2727
 4130SOL     H238590   6.345   2.023   7.755  0.5886  1.4882  2.8479
 4131SOL    OH238591   3.222   7.245   0.149 -0.0085 -0.5454  0.3457
 4131SOL     H138592   3.236   7.268   0.057 -0.9391 -0.7710  0.1377
 4131SOL     H238593   3.307   7.259   0.191  0.2177  0.3239 -0.3872
 4132SOL    OH238594   1.327   4.097   0.831 -0.3426 -0.3436  0.3049
 4132SOL     H138595   1.330   4.041   0.909  0.5555  0.5123  0.8904
 4132SOL     H238596   1.382   4.052   0.767  0.4033 -0.1091  0.7859
 4133SOL    OH238597   6.795   3.244   8.059  0.1098 -0.0217 -0.1800
 4133SOL     H138598   6.872   3.196   8.030  2.0211  2.2108  1.0647
 4133SOL     H238599   6.790   3.228   8.153 -1.8697 -1.3702 -0.4696
 4134SOL    OH238600   0.009   4.941   1.006  0.0463 -0.2114 -0.1512
 4134SOL     H138601  -0.015   5.005   0.938  0.1150 -0.0527 -0.0275
 4134SOL     H238602   0.086   4.979   1.048 -0.8042  0.3695  0.9276
 4135SOL    OH238603   2.723   2.790   6.185 -0.2347 -0.5430 -0.6150
 4135SOL     H138604   2.694   2.702   6.161  0.0489 -1.2503  1.4987
 4135SOL     H238605   2.693   2.800   6.275  1.4632  0.7677 -0.1932
 4136SOL    OH238606   0.663   4.177   0.419 -0.3329  0.1928 -0.2210
 4136SOL     H138607   0.710   4.114   0.473 -0.6939 -1.6279 -1.9629
 4136SOL     H238608   0.690   4.158   0.330 -2.5104  0.7080 -1.0331
 4137SOL    OH238609   7.942   7.234   7.165 -0.3614  0.0150  0.2024
 4137SOL     H138610   8.004   7.253   7.094 -0.4598  0.6055  0.2690
 4137SOL     H238611   7.857   7.234   7.121 -0.2901 -1.1431  0.0455
 4138SOL    OH238612   4.590   3.077   7.078  0.2210  0.6629 -0.2830
 4138SOL     H138613   4.509   3.084   7.128  0.5889 -0.2047  0.4633
 4138SOL     H238614   4.653   3.039   7.140  0.4259 -1.3644 -1.6837
 4139SOL    OH238615   7.911   3.938   2.572 -0.3762 -0.2070  0.6606
 4139SOL     H138616   7.953   3.904   2.651  2.0387  2.5330  0.6311
 4139SOL     H238617   7.942   3.882   2.502  3.2371  1.6502  0.6710
 4140SOL    OH238618   1.769   0.032   7.374 -0.1458  0.3595  0.1231
 4140SOL     H138619   1.704   0.015   7.442  2.0574 -0.3535  2.1305
 4140SOL     H238620   1.787   0.126   7.382  1.2984 -0.0108  1.7136
 4141SOL    OH238621   7.902   1.922   7.235 -0.3701  0.1756 -0.6570
 4141SOL     H138622   7.849   1.967   7.169 -2.6792 -2.8779 -0.9629
 4141SOL     H238623   7.849   1.923   7.314 -0.1017 -1.2673 -0.4439
 4142SOL    OH238624   4.247   6.884   0.411  0.4841  0.9011  0.3202
 4142SOL     H138625   4.256   6.915   0.501  0.5375 -0.5519  0.8265
 4142SOL     H238626   4.153   6.892   0.393  0.0467 -1.2002  1.4211
 4143SOL    OH238627   3.999   0.922   1.960 -0.1974 -0.8460 -0.0745
 4143SOL     H138628   3.926   0.867   1.930 -0.4458 -0.0244 -1.0143
 4143SOL     H238629   4.077   0.871   1.939 -0.4668 -1.3049  0.0366
 4144SOL    OH238630   2.060   5.040   5.688 -0.4730  0.4295  0.0509
 4144SOL     H138631   2.090   5.046   5.597 -2.1004  0.6330 -0.4857
 4144SOL     H238632   2.126   5.088   5.738  1.4065 -1.2275 -0.7754
 4145SOL    OH238633   1.600   0.956   0.349  0.0202  0.5976  0.0447
 4145SOL     H138634   1.682   0.939   0.396  0.3167  0.6330 -0.4529
 4145SOL     H238635   1.604   0.898   0.273 -0.8818 -0.1296  0.5471
 4146SOL    OH238636   0.662   2.505   0.065 -0.2182  0.1757 -0.0064
 4146SOL     H138637   0.683   2.415   0.088  0.6638  1.0713  2.9547
 4146SOL     H238638   0.728   2.531   0.001 -0.0723 -1.0517 -0.3539
 4147SOL    OH238639   3.636   5.508   7.562 -0.3852 -0.2210  0.2390
 4147SOL     H138640   3.590   5.430   7.532 -0.3303  0.1295 -0.7677
 4147SOL     H238641   3.587   5.536   7.639 -0.5419 -1.1079  0.4702
 4148SOL    OH238642   6.160   1.777   0.257 -0.2107  0.6598  0.2541
 4148SOL     H138643   6.179   1.823   0.338  0.1378 -0.2954  0.7293
 4148SOL     H238644   6.193   1.834   0.187 -0.3263  1.3858  0.7999
 4149SOL    OH238645   7.501   4.801   7.351 -0.1079 -0.4926  0.2191
 4149SOL     H138646   7.533   4.886   7.379 -0.4984 -0.1423 -0.3820
 4149SOL     H238647   7.435   4.821   7.284 -1.1319 -1.2183  0.9883
 4150SOL    OH238648   0.609   1.625   6.946 -0.4988  0.2224  0.1247
 4150SOL     H138649   0.553   1.592   6.875 -0.1651 -1.0139  0.4271
 4150SOL     H238650   0.641   1.709   6.913 -1.0839  0.0909 -0.8117
 4151SOL    OH238651   4.714   4.734   1.814 -0.3498 -0.1919  0.0212
 4151SOL     H138652   4.710   4.799   1.885 -0.1988  0.5704 -0.6528
 4151SOL     H238653   4.808   4.719   1.801 -0.3496  0.3308 -0.6036
 4152SOL    OH238654   4.692   7.021  -0.024  0.1632  0.2528 -0.9020
 4152SOL     H138655   4.602   6.987  -0.020 -0.4549  1.8688 -0.2879
 4152SOL     H238656   4.723   7.015   0.067  0.5403  0.0172 -1.0495
 4153SOL    OH238657   3.287   6.980   0.051 -0.0457  0.3014  0.0665
 4153SOL     H138658   3.278   7.060  -0.002 -1.5742 -0.0068 -0.1707
 4153SOL     H238659   3.238   6.999   0.130 -2.7392 -1.3794 -1.1519
 4154SOL    OH238660   3.934   3.378   0.510 -0.0846 -0.8123  0.0689
 4154SOL     H138661   3.862   3.410   0.565  0.8668 -0.4765  1.1159
 4154SOL     H238662   3.930   3.283   0.518  0.0491 -0.7647  0.7159
 4155SOL    OH238663   7.217   6.414   1.450 -0.8736 -0.1866 -0.2631
 4155SOL     H138664   7.264   6.355   1.509 -1.4329 -1.5096 -1.1238
 4155SOL     H238665   7.131   6.424   1.490 -0.3054  1.2260  0.6460
 4156SOL    OH238666   7.791   4.867   8.010  0.7459 -0.5896  0.0902
 4156SOL     H138667   7.852   4.912   7.953  0.9732  0.4772  1.1481
 4156SOL     H238668   7.845   4.804   8.057  0.6417 -1.1456 -0.5333
 4157SOL    OH238669   3.611   5.952   0.819  0.2008  0.0282  0.2030
 4157SOL     H138670   3.648   6.029   0.862  2.3253 -0.6467 -0.3909
 4157SOL     H238671   3.599   5.978   0.728  1.2272 -0.4351 -0.0705
 4158SOL    OH238672   4.213   7.424   0.882  0.4676 -0.3868  1.1845
 4158SOL     H138673   4.238   7.363   0.813 -0.2203 -0.6601  1.1748
 4158SOL     H238674   4.206   7.508   0.838  1.4244 -0.2970  1.1989
 4159SOL    OH238675   7.472   5.554   7.709 -0.1118  0.3010 -0.1489
 4159SOL     H138676   7.539   5.515   7.652 -0.7806 -0.5277 -0.3867
 4159SOL     H238677   7.391   5.547   7.658 -0.5324  0.4839  0.4925
 4160SOL    OH238678   3.137   5.365   6.086  0.6919  0.0998 -0.0285
 4160SOL     H138679   3.115   5.289   6.139 -1.7754  0.9940  0.3009
 4160SOL     H238680   3.095   5.438   6.131 -0.7679  0.9930 -2.7301
 4161SOL    OH238681   6.027   5.542   7.362 -0.3161  0.5792 -0.0219
 4161SOL     H138682   6.108   5.544   7.310 -0.2937  2.4820  0.0545
 4161SOL     H238683   5.978   5.468   7.327  0.3024  1.0205 -1.8595
 4162SOL    OH238684   5.760   1.324   7.810  0.3001  0.3547 -0.4339
 4162SOL     H138685   5.779   1.362   7.724 -0.6386 -1.5445 -1.5152
 4162SOL     H238686   5.841   1.335   7.860  1.0172  1.0392 -1.7262
 4163SOL    OH238687   5.104   6.753   7.127 -0.2187  0.3171 -0.0204
 4163SOL     H138688   5.029   6.780   7.180 -1.0653  0.0029 -1.0496
 4163SOL     H238689   5.172   6.818   7.148 -0.6258  0.3514  1.2411
 4164SOL    OH238690   2.777   4.131   7.087 -0.0533 -0.0430  0.2272
 4164SOL     H138691   2.829   4.178   7.021  0.7449 -1.6190 -0.2829
 4164SOL     H238692   2.841   4.091   7.145 -0.7047 -0.8784  0.3939
 4165SOL    OH238693   6.372   2.040   5.908  0.1716  0.4331  0.0185
 4165SOL     H138694   6.333   1.995   5.983  2.3508 -0.0197  0.8997
 4165SOL     H238695   6.428   1.975   5.867  0.8726  1.4063 -0.5860
 4166SOL    OH238696   5.043   0.683   7.478  0.5476 -0.0232  0.1724
 4166SOL     H138697   5.024   0.756   7.419  0.9495  0.2816  0.4156
 4166SOL     H238698   5.018   0.715   7.565  1.3072  0.0603  0.3676
 4167SOL    OH238699   6.767   0.012   2.469 -0.4533  0.1879 -0.0871
 4167SOL     H138700   6.761   0.098   2.510 -0.2612 -0.5135  1.4156
 4167SOL     H238701   6.690   0.008   2.412 -0.9947  0.9719  0.5750
 4168SOL    OH238702   2.347   6.780   2.475  0.0830 -0.2387  0.6499
 4168SOL     H138703   2.260   6.790   2.513 -0.4360 -0.9146 -0.3288
 4168SOL     H238704   2.336   6.802   2.382  1.2472  1.0534  0.7965
 4169SOL    OH238705   6.236   2.699   0.710  0.5179  0.3294 -0.1107
 4169SOL     H138706   6.264   2.676   0.622 -3.5077  1.3585 -1.7949
 4169SOL     H238707   6.217   2.615   0.752 -0.1555 -0.0824 -1.2020
 4170SOL    OH238708   5.527   5.962   7.857  0.0764  0.0231 -0.5123
 4170SOL     H138709   5.549   5.966   7.950 -1.3540  1.2799 -0.1948
 4170SOL     H238710   5.449   5.906   7.854  1.4882 -1.9777 -1.2644
 4171SOL    OH238711   6.563   2.898   1.821 -0.8886  0.2283  0.3488
 4171SOL     H138712   6.504   2.823   1.821  0.3032 -0.7149 -0.2575
 4171SOL     H238713   6.642   2.867   1.777 -0.9196  2.2582 -1.2369
 4172SOL    OH238714   4.994   3.473   0.618 -0.0259 -1.0738 -0.1449
 4172SOL     H138715   5.019   3.400   0.676 -0.4843 -0.0209  1.4099
 4172SOL     H238716   5.046   3.547   0.649  0.7334 -0.8199 -1.9734
 4173SOL    OH238717   2.281   3.071   6.841 -0.0409  0.0196 -0.2274
 4173SOL     H138718   2.247   3.160   6.829  1.1993  0.7426  1.5296
 4173SOL     H238719   2.230   3.036   6.913  1.1166  0.1736  0.6756
 4174SOL    OH238720   3.898   7.755   6.175  0.0484  0.4372 -0.0592
 4174SOL     H138721   3.949   7.704   6.112 -0.3992 -0.2156  0.0966
 4174SOL     H238722   3.818   7.778   6.128  0.0433  0.5964  0.0268
 4175SOL    OH238723   2.159   4.445   6.217 -0.1641  0.2175  0.6461
 4175SOL     H138724   2.249   4.477   6.217 -0.9390  2.4595  0.6773
 4175SOL     H238725   2.116   4.493   6.146 -0.8487 -2.3270 -0.7584
 4176SOL    OH238726   1.653   2.396  -0.001  0.1162  0.3119 -0.3889
 4176SOL     H138727   1.633   2.340   0.074  0.0067  0.6549 -0.1573
 4176SOL     H238728   1.721   2.455   0.031  0.7875 -0.2014 -0.8717
 4177SOL    OH238729   6.675   1.081   0.439 -0.1082 -0.4291 -0.2817
 4177SOL     H138730   6.645   0.993   0.462  1.8896 -0.6316  1.7482
 4177SOL     H238731   6.761   1.088   0.481  0.0681  2.2291 -1.0427
 4178SOL    OH238732   1.609   2.752   8.290 -0.1236 -0.3008 -0.2184
 4178SOL     H138733   1.686   2.697   8.281  0.4493  0.4988 -0.2305
 4178SOL     H238734   1.600   2.795   8.205  1.7828  2.6879  1.0198
 4179SOL    OH238735   1.018   6.947   1.284  0.1447  0.2710 -0.1308
 4179SOL     H138736   1.083   6.882   1.258 -0.2798  0.2255 -1.1050
 4179SOL     H238737   0.941   6.927   1.230 -0.9139 -0.0911  1.4822
 4180SOL    OH238738   6.937   6.434   1.536  0.3557 -0.5579  0.9059
 4180SOL     H138739   6.969   6.453   1.447  3.6419 -1.9645  1.7029
 4180SOL     H238740   6.874   6.503   1.554  0.7773  0.6486 -1.9642
 4181SOL    OH238741   0.326   2.993   6.999  0.3452  0.1455  0.1462
 4181SOL     H138742   0.250   3.051   7.011  0.9635  1.0968 -0.4861
 4181SOL     H238743   0.288   2.906   6.990 -0.6894  0.6333 -0.3043
 4182SOL    OH238744   1.768   4.178   6.504 -0.1101  0.2638 -0.0872
 4182SOL     H138745   1.712   4.228   6.445 -0.0634 -0.2759 -0.5898
 4182SOL     H238746   1.837   4.142   6.448  0.0378 -0.1013  0.3223
 4183SOL    OH238747   0.571   5.316   0.703  0.2160 -0.0029 -0.6072
 4183SOL     H138748   0.617   5.360   0.774 -1.2665 -1.1300  1.0605
 4183SOL     H238749   0.625   5.239   0.684 -0.7718 -1.1124  1.0799
 4184SOL    OH238750   2.876   5.170   6.697  0.2988 -0.0130 -0.4479
 4184SOL     H138751   2.873   5.075   6.684 -1.9870 -0.0746  0.1980
 4184SOL     H238752   2.963   5.187   6.732 -0.4352 -2.3807  2.8113
 4185SOL    OH238753   3.204   3.951   1.476 -0.5297  0.7381 -0.2616
 4185SOL     H138754   3.257   3.906   1.541 -0.6695  1.7750  0.5872
 4185SOL     H238755   3.244   3.929   1.392 -0.9371 -1.3975  0.0839
 4186SOL    OH238756   0.576   1.986   2.246  0.2485  0.1846 -0.1757
 4186SOL     H138757   0.630   1.973   2.324  0.6189 -1.8798 -0.7340
 4186SOL     H238758   0.492   1.946   2.268  1.0600 -2.4158 -1.5694
 4187SOL    OH238759   2.172   7.760   0.524  0.3219  0.5654  0.5644
 4187SOL     H138760   2.181   7.665   0.528 -1.3007  0.4263  1.3453
 4187SOL     H238761   2.162   7.787   0.615 -1.0788  1.2758  0.2174
 4188SOL    OH238762   7.561   2.600   0.421 -0.0780  0.1377  0.0824
 4188SOL     H138763   7.632   2.618   0.483 -0.4525 -0.0697  0.5740
 4188SOL     H238764   7.502   2.675   0.429 -1.4379 -1.0994  1.8484
 4189SOL    OH238765   3.759   7.764   6.617 -0.2274 -0.4373 -0.3263
 4189SOL     H138766   3.803   7.815   6.549  0.3087 -1.0251 -0.4291
 4189SOL     H238767   3.712   7.696   6.568  1.6156 -1.9638 -0.0233
 4190SOL    OH238768   3.946   6.899   0.974 -0.1920 -0.2594 -0.2977
 4190SOL     H138769   3.992   6.976   1.008 -0.6524 -0.2134  0.2259
 4190SOL     H238770   3.854   6.916   0.993 -0.3293 -0.7963 -0.4719
 4191SOL    OH238771   2.722   5.402   6.593  0.3141 -0.6392 -0.6348
 4191SOL     H138772   2.779   5.415   6.517  1.3922 -0.6379  0.1672
 4191SOL     H238773   2.777   5.355   6.657  0.0143  0.9928  0.8614
 4192SOL    OH238774   2.519   1.003   0.157 -0.1056 -0.1360  0.0110
 4192SOL     H138775   2.539   1.000   0.064  3.0346  1.2935  0.5857
 4192SOL     H238776   2.571   0.933   0.196 -0.2092  0.2583  0.8835
 4193SOL    OH238777   4.132   7.254   7.573 -0.4228 -0.2513 -0.0515
 4193SOL     H138778   4.162   7.345   7.568  0.2791 -0.5025 -0.4959
 4193SOL     H238779   4.077   7.251   7.651 -1.3739  0.8276 -0.6504
 4194SOL    OH238780   2.733   0.630   1.364 -0.1972  0.0115 -0.0951
 4194SOL     H138781   2.689   0.685   1.299  0.2495 -0.5054 -0.8454
 4194SOL     H238782   2.720   0.541   1.332 -1.3589 -0.3698  1.3829
 4195SOL    OH238783   4.780   0.219   7.182 -0.0931  0.4179  0.1884
 4195SOL     H138784   4.751   0.230   7.273 -0.5616 -0.3170  0.1274
 4195SOL     H238785   4.735   0.289   7.135 -2.1298 -0.9593  0.0206
 4196SOL    OH238786   2.363   4.436   0.992  0.3205  0.2298 -0.4947
 4196SOL     H138787   2.357   4.525   1.027 -2.1163  0.6542 -1.8450
 4196SOL     H238788   2.272   4.408   0.981  1.0145 -1.2003 -3.1069
 4197SOL    OH238789   6.341   5.047   1.335 -0.1687  0.0760 -0.1727
 4197SOL     H138790   6.385   4.987   1.276  0.0472 -0.8487  0.9114
 4197SOL     H238791   6.267   5.081   1.285  1.3760  1.1327 -1.7824
 4198SOL    OH238792   2.090   7.528   6.174  0.0884  0.5588  0.3988
 4198SOL     H138793   2.041   7.533   6.256 -0.2066  1.6920  0.1596
 4198SOL     H238794   2.111   7.435   6.165 -0.7164  0.2782  1.2629
 4199SOL    OH238795   4.630   2.262   5.952  0.0600  0.1993  0.5493
 4199SOL     H138796   4.609   2.197   5.884 -1.1927  1.0137  0.1373
 4199SOL     H238797   4.697   2.220   6.005  1.7983 -0.0684 -1.8005
 4200SOL    OH238798   7.418   1.879   6.957 -0.2734  0.0609 -0.4094
 4200SOL     H138799   7.323   1.893   6.949 -0.4098  0.1740  1.2094
 4200SOL     H238800   7.446   1.942   7.023  0.8549 -0.3171 -0.5146
 4201SOL    OH238801   7.343   4.272   0.395  0.4139  0.2156  0.3169
 4201SOL     H138802   7.415   4.269   0.332  1.5039 -1.8385  1.5884
 4201SOL     H238803   7.278   4.210   0.361 -0.1572  1.0311 -0.1032
 4202SOL    OH238804   4.419   0.683   8.093  1.1743 -0.2296  0.1637
 4202SOL     H138805   4.392   0.713   8.006  1.3710 -1.3920 -0.3071
 4202SOL     H238806   4.515   0.681   8.089  1.2526  1.3232  0.9628
 4203SOL    OH238807   6.776   0.685   0.178  0.3785 -0.1748  0.1428
 4203SOL     H138808   6.793   0.705   0.086  2.2720  0.6098  0.6418
 4203SOL     H238809   6.685   0.710   0.192  0.1055 -0.2239 -1.4928
 4204SOL    OH238810   2.847   3.472   6.322  0.4954  0.4845  0.2065
 4204SOL     H138811   2.873   3.403   6.261  0.0210  0.7894 -0.3413
 4204SOL     H238812   2.755   3.487   6.304  0.8145  1.9309 -0.3391
 4205SOL    OH238813   1.628   6.792   1.402 -0.4088  0.2190  0.1231
 4205SOL     H138814   1.591   6.703   1.400  1.5194 -0.6096  0.1680
 4205SOL     H238815   1.649   6.811   1.311 -0.8884  0.6704  0.1052
 4206SOL    OH238816   2.404   5.554   5.758 -1.2052 -0.1671 -0.3141
 4206SOL     H138817   2.438   5.465   5.758 -1.1612 -0.1501  0.3349
 4206SOL     H238818   2.316   5.547   5.721 -1.6043 -0.6296  0.7257
 4207SOL    OH238819   7.129   4.888   5.816 -0.2839  0.4320  0.4979
 4207SOL     H138820   7.081   4.921   5.892 -0.4977  2.1398 -0.3502
 4207SOL     H238821   7.062   4.851   5.760 -0.3568  0.8497  0.3056
 4208SOL    OH238822   7.097   3.745   2.406  0.5873 -0.9486 -0.3201
 4208SOL     H138823   7.049   3.773   2.328  3.3539  2.6368 -0.8923
 4208SOL     H238824   7.179   3.709   2.372  0.9265 -1.3254  0.8556
 4209SOL    OH238825   1.452   0.445   5.786 -0.3626  0.3528  0.3076
 4209SOL     H138826   1.428   0.406   5.870  0.1585  2.2367  1.3754
 4209SOL     H238827   1.397   0.400   5.722 -1.4351 -0.4864  1.7734
 4210SOL    OH238828   7.361   3.592   7.125 -0.4148  0.2181 -0.1621
 4210SOL     H138829   7.393   3.506   7.154 -0.1409  0.1525 -0.6553
 4210SOL     H238830   7.313   3.626   7.200  1.5434  0.7013  0.8968
 4211SOL    OH238831   7.879   2.903   1.152  0.0991  0.7029  0.0775
 4211SOL     H138832   7.969   2.936   1.154  0.0014  1.2492 -2.3604
 4211SOL     H238833   7.885   2.818   1.109 -0.5150  0.6332  0.1180
 4212SOL    OH238834   4.863   7.254   8.206 -0.4153  0.1847 -0.6663
 4212SOL     H138835   4.778   7.298   8.204 -0.8070 -0.5116  0.1334
 4212SOL     H238836   4.842   7.164   8.231  0.6237  0.1814  0.2144
 4213SOL    OH238837   6.390   5.449   8.160 -0.6383 -0.2200  0.2014
 4213SOL     H138838   6.393   5.462   8.065 -1.8405 -0.4562  0.1220
 4213SOL     H238839   6.361   5.359   8.171  0.1326 -0.4009  0.7956
 4214SOL    OH238840   2.156   3.086   0.099  0.3635 -0.2751  0.3404
 4214SOL     H138841   2.098   3.016   0.066  0.8777  0.1770 -1.5434
 4214SOL     H238842   2.097   3.143   0.148 -0.3325 -1.2083  0.6281
 4215SOL    OH238843   6.723   3.612   7.919  0.2098 -0.6480 -0.1163
 4215SOL     H138844   6.666   3.559   7.975 -1.1022 -1.3570 -2.0759
 4215SOL     H238845   6.810   3.577   7.934 -0.4274 -2.3156 -0.1656
 4216SOL    OH238846   3.988   3.732   1.103 -0.5220 -0.0317  0.2003
 4216SOL     H138847   4.009   3.822   1.131 -2.2142  0.5689 -0.4089
 4216SOL     H238848   3.984   3.738   1.007 -2.5692 -0.3219  0.2669
 4217SOL    OH238849   4.556   1.711   7.555 -0.2659  0.1471 -0.5415
 4217SOL     H138850   4.614   1.644   7.592  0.5382 -0.1384 -2.3038
 4217SOL     H238851   4.578   1.791   7.604  1.2782 -0.0626 -0.8780
 4218SOL    OH238852   1.691   6.140   7.805 -0.1609  0.6929  0.1338
 4218SOL     H138853   1.614   6.182   7.843  0.5523  3.1482 -1.0282
 4218SOL     H238854   1.682   6.155   7.711  0.8145 -0.6166 -0.1749
 4219SOL    OH238855   7.842   5.163   2.282  0.5117  0.5536 -0.3463
 4219SOL     H138856   7.786   5.154   2.359 -0.1900 -0.2460 -0.9317
 4219SOL     H238857   7.925   5.196   2.315  0.5680 -0.7969  0.9048
 4220SOL    OH238858   0.577   3.741   0.707  0.7772 -0.4359 -0.0988
 4220SOL     H138859   0.666   3.753   0.741  0.9497 -0.4911 -0.5289
 4220SOL     H238860   0.560   3.821   0.657  0.9729 -0.8627 -0.8623
 4221SOL    OH238861   0.819   2.896   7.609  0.2846  0.0925  0.9481
 4221SOL     H138862   0.873   2.817   7.609  0.5431  0.2594  0.4380
 4221SOL     H238863   0.734   2.868   7.642 -0.8968 -1.2888 -3.0322
 4222SOL    OH238864   2.385   0.327   0.733  0.1367  0.0528 -0.0232
 4222SOL     H138865   2.379   0.269   0.808 -0.9235 -0.2242 -0.3038
 4222SOL     H238866   2.418   0.409   0.768 -2.0467  0.4997  1.0900
 4223SOL    OH238867   6.557   5.229   8.020 -0.4046 -0.4697  0.5282
 4223SOL     H138868   6.486   5.197   8.075 -0.7123 -0.3835  0.1752
 4223SOL     H238869   6.635   5.223   8.076 -0.9144  0.7313  1.3716
 4224SOL    OH238870   3.309   3.510   8.105  0.6148  0.1163 -0.3645
 4224SOL     H138871   3.341   3.493   8.016 -2.7284  3.8505 -2.4667
 4224SOL     H238872   3.215   3.490   8.100  0.3172  0.7262  2.2518
 4225SOL    OH238873   7.084   5.277   6.243  0.2124  0.3657 -0.1816
 4225SOL     H138874   7.101   5.360   6.198 -2.6900 -0.4911 -3.1152
 4225SOL     H238875   7.008   5.296   6.299 -1.3353 -0.5814 -1.9013
 4226SOL    OH238876   7.306   4.551   6.951  0.8055  0.4015  0.0425
 4226SOL     H138877   7.338   4.524   6.865  0.3295 -0.6765  0.1852
 4226SOL     H238878   7.362   4.625   6.976  1.0323  0.6311 -1.1269
 4227SOL    OH238879   6.774   7.139   7.569 -0.0611 -0.3245  0.3546
 4227SOL     H138880   6.763   7.168   7.659 -0.7185  0.4301  0.0415
 4227SOL     H238881   6.703   7.076   7.555  0.8369 -1.4457  0.7638
 4228SOL    OH238882   3.966   3.083   1.143  0.6801 -0.0994  0.2838
 4228SOL     H138883   3.875   3.107   1.123  1.0922 -0.5260 -2.2363
 4228SOL     H238884   4.013   3.165   1.143  0.4545  0.0365  0.8221
 4229SOL    OH238885   7.074   6.661   7.466 -0.5951  0.1794  0.2328
 4229SOL     H138886   6.990   6.671   7.422 -0.4952 -0.3439 -0.0790
 4229SOL     H238887   7.139   6.672   7.396 -0.3528  2.1554  0.7350
 4230SOL    OH238888   4.885   6.749   0.052  0.7471 -0.4596 -0.4946
 4230SOL     H138889   4.916   6.730  -0.036  2.1425 -0.4383 -0.0232
 4230SOL     H238890   4.945   6.816   0.085  1.4884 -1.9146  1.1888
 4231SOL    OH238891   4.080   2.031   7.437 -0.0903  0.8127 -0.1563
 4231SOL     H138892   4.118   1.982   7.509 -0.8285  1.5827  0.7580
 4231SOL     H238893   4.156   2.066   7.389  0.3839  0.8377  0.6069
 4232SOL    OH238894   3.568   4.906   7.273 -0.7762  0.0702 -0.5825
 4232SOL     H138895   3.577   4.913   7.368  1.1680 -0.8778 -0.6729
 4232SOL     H238896   3.473   4.910   7.258 -1.1073  0.3308  1.3772
 4233SOL    OH238897   2.760   2.413   7.250 -0.0962 -0.4841  0.4270
 4233SOL     H138898   2.715   2.377   7.174 -1.0756  0.6644  0.4606
 4233SOL     H238899   2.849   2.431   7.219 -0.6833  0.6341 -0.6481
 4234SOL    OH238900   4.543   4.119   7.373  0.5069  0.2862 -0.1368
 4234SOL     H138901   4.478   4.054   7.347  1.1104 -0.0898 -0.7294
 4234SOL     H238902   4.568   4.161   7.290  0.7714  0.6574  0.1324
 4235SOL    OH238903   7.211   7.424   6.914  0.5430 -0.1037 -0.2902
 4235SOL     H138904   7.207   7.490   6.844  0.8204  1.1311  0.8367
 4235SOL     H238905   7.196   7.341   6.869 -0.4288  0.7793 -1.6529
 4236SOL    OH238906   2.891   0.154   7.694  0.1411  0.0082  0.0977
 4236SOL     H138907   2.798   0.172   7.711 -0.0957 -1.4104  0.3437
 4236SOL     H238908   2.931   0.152   7.781  0.2622 -0.0907  0.0396
 4237SOL    OH238909   6.420   2.272   1.114 -0.4893  0.0793 -0.0457
 4237SOL     H138910   6.466   2.275   1.030 -0.2922  1.8322  0.1078
 4237SOL     H238911   6.338   2.226   1.094 -0.5523  0.6932 -1.2482
 4238SOL    OH238912   6.220   5.751   7.340 -0.7837 -0.1932 -0.5003
 4238SOL     H138913   6.240   5.829   7.289  3.5670 -1.6200 -1.2555
 4238SOL     H238914   6.234   5.678   7.279 -3.3409 -1.6534  0.5796
 4239SOL    OH238915   4.375   0.627   1.455  0.1887 -0.0770 -0.5798
 4239SOL     H138916   4.405   0.537   1.467  0.9332  0.2095 -0.2683
 4239SOL     H238917   4.291   0.619   1.409  0.0757 -0.9427 -0.2269
 4240SOL    OH238918   1.814   1.495   6.957  0.7467 -0.0713 -0.1743
 4240SOL     H138919   1.753   1.509   7.030  0.1762  0.4770 -0.7529
 4240SOL     H238920   1.770   1.533   6.881  0.5432 -2.2234 -1.1779
 4241SOL    OH238921   5.242   7.322   1.980 -0.8595  0.3380  0.2688
 4241SOL     H138922   5.252   7.384   1.908 -0.6954  0.4551  0.3936
 4241SOL     H238923   5.221   7.239   1.937  1.2732 -0.0571 -0.0293
 4242SOL    OH238924   4.012   6.186   1.842  0.6797 -0.1136  0.2451
 4242SOL     H138925   3.952   6.198   1.769  1.8061  1.3907 -0.4602
 4242SOL     H238926   4.061   6.107   1.821  1.6035  0.7964 -1.0588
 4243SOL    OH238927   3.418   6.895   7.503 -0.8979  0.7565 -0.3146
 4243SOL     H138928   3.339   6.911   7.554 -0.2228  1.2503  0.5893
 4243SOL     H238929   3.423   6.799   7.495 -1.7621  0.7400 -0.6621
 4244SOL    OH238930   4.337   7.417   6.968 -0.2460  0.1551 -0.2307
 4244SOL     H138931   4.431   7.403   6.980 -0.2148 -0.1938 -0.8905
 4244SOL     H238932   4.296   7.368   7.039  0.0896  0.6929  0.3410
 4245SOL    OH238933   0.300   0.016   1.360 -0.0584 -0.2404  0.2247
 4245SOL     H138934   0.232   0.072   1.397  1.1937  0.6546  1.2238
 4245SOL     H238935   0.310  -0.055   1.424 -1.4530 -1.4632 -0.9067
 4246SOL    OH238936   7.303   4.454   7.753 -0.2221 -0.1634 -0.3046
 4246SOL     H138937   7.380   4.415   7.794 -0.8981  0.2276  1.3939
 4246SOL     H238938   7.273   4.520   7.817 -2.2671 -0.6732 -0.7008
 4247SOL    OH238939   6.838   5.198   0.638  0.2876  0.7038 -0.1697
 4247SOL     H138940   6.934   5.205   0.640  0.1832  1.9703  0.6092
 4247SOL     H238941   6.807   5.288   0.645 -0.9413  0.5007 -2.4925
 4248SOL    OH238942   1.541   5.708   8.277  0.8902 -0.3178  0.1124
 4248SOL     H138943   1.457   5.750   8.256  0.5588 -1.4589 -0.8820
 4248SOL     H238944   1.606   5.763   8.233  0.5493 -0.2349 -0.2935
 4249SOL    OH238945   2.799   6.072   7.405  0.0929  0.2637 -0.2004
 4249SOL     H138946   2.743   6.000   7.378  1.1181 -0.9571  0.8482
 4249SOL     H238947   2.781   6.142   7.342 -2.7895  0.0112  0.2935
 4250SOL    OH238948   2.063   5.340   6.550 -0.6363 -0.1775 -0.2350
 4250SOL     H138949   2.086   5.429   6.526  0.1521 -0.1800  0.4868
 4250SOL     H238950   2.134   5.312   6.609 -1.2927 -0.9925  0.1737
 4251SOL    OH238951   1.989   3.692   7.976 -0.2027 -0.1771  0.0441
 4251SOL     H138952   1.989   3.779   8.016  0.3066 -0.2693  0.2485
 4251SOL     H238953   1.949   3.636   8.042 -0.0682 -0.1874  0.1180
 4252SOL    OH238954   1.088   4.937   0.984 -0.3933  0.3256 -0.1613
 4252SOL     H138955   1.054   4.852   1.012  0.8885 -0.1240  0.0682
 4252SOL     H238956   1.123   4.976   1.064  2.6605 -0.6713 -0.9378
 4253SOL    OH238957   5.999   4.345   1.550 -0.4979  0.3713  0.1391
 4253SOL     H138958   6.092   4.328   1.537 -0.1664  2.8130 -1.0883
 4253SOL     H238959   5.955   4.266   1.518  1.0997 -0.2701 -0.5102
 4254SOL    OH238960   3.223   4.323   7.626  0.2490  0.2597  0.0462
 4254SOL     H138961   3.255   4.239   7.593  0.8763  0.5364 -0.0581
 4254SOL     H238962   3.302   4.369   7.656  0.0469  1.2621 -0.9397
 4255SOL    OH238963   1.645   1.431   7.211 -0.0353  1.0761 -0.3066
 4255SOL     H138964   1.551   1.414   7.200  0.1259  0.4643 -0.7799
 4255SOL     H238965   1.675   1.364   7.273 -0.0334  1.6694  0.3421
 4256SOL    OH238966   7.603   5.772   0.774 -0.0787  0.3026 -0.4588
 4256SOL     H138967   7.521   5.761   0.823 -0.7232  0.5891 -1.4623
 4256SOL     H238968   7.595   5.713   0.700  0.2332  0.9894 -1.0442
 4257SOL    OH238969   2.723   6.488   6.632  0.0431  0.1103 -0.0278
 4257SOL     H138970   2.708   6.419   6.697 -3.0963 -0.3078 -1.0757
 4257SOL     H238971   2.742   6.440   6.551 -0.5320  0.5149 -0.4048
 4258SOL    OH238972   3.023   5.291   7.937 -0.0627  0.2781  0.1502
 4258SOL     H138973   2.946   5.311   7.884  0.2342  0.5532 -0.1787
 4258SOL     H238974   3.034   5.196   7.928 -0.0186  0.3221 -0.2765
 4259SOL    OH238975   4.737   5.511   7.476 -0.0533 -0.2874  0.1721
 4259SOL     H138976   4.811   5.474   7.428 -1.0841  1.0457 -2.5969
 4259SOL     H238977   4.661   5.459   7.447 -1.0249  1.9059 -1.4319
 4260SOL    OH238978   5.871   4.262   1.942 -0.1980  0.5090 -0.5174
 4260SOL     H138979   5.791   4.290   1.899  0.2118  0.7264 -1.1335
 4260SOL     H238980   5.883   4.324   2.014  0.0739  1.1969 -1.1631
 4261SOL    OH238981   7.362   1.804   7.839  0.0324 -0.0819  0.1004
 4261SOL     H138982   7.419   1.775   7.768 -0.3409 -1.8481  0.4858
 4261SOL     H238983   7.334   1.892   7.813  2.1189  0.4034 -0.5590
 4262SOL    OH238984   2.649   7.871   6.908  0.2522  0.4426  0.0734
 4262SOL     H138985   2.608   7.801   6.857 -0.6226 -0.1366  1.5443
 4262SOL     H238986   2.601   7.950   6.883 -1.0436 -0.0505  0.9507
 4263SOL    OH238987   0.011   5.917   0.625 -0.5290  0.8757  0.3400
 4263SOL     H138988   0.096   5.872   0.629 -1.5636 -1.3106 -1.4528
 4263SOL     H238989  -0.022   5.913   0.715 -0.2925 -1.3858  0.3482
 4264SOL    OH238990   0.865   1.743   2.051  0.3128 -0.1373  0.0423
 4264SOL     H138991   0.940   1.707   2.099  0.2665  0.5049  0.6147
 4264SOL     H238992   0.858   1.833   2.083 -0.6811 -0.1826 -0.0454
 4265SOL    OH238993   0.243   3.822   0.059 -0.0958 -0.2517  0.4576
 4265SOL     H138994   0.214   3.912   0.070 -0.1291 -0.2401  0.2723
 4265SOL     H238995   0.165   3.775   0.031 -0.3430 -0.5485  1.5939
 4266SOL    OH238996   6.417   6.811   1.593 -0.0292 -0.2891 -0.0012
 4266SOL     H138997   6.395   6.858   1.673 -1.4740  1.6154 -1.4643
 4266SOL     H238998   6.479   6.868   1.547 -1.9903  0.3841 -1.9070
 4267SOL    OH238999   5.052   0.949   0.663  0.1290  0.3118 -0.8660
 4267SOL     H139000   5.070   0.963   0.756 -1.0336  1.9858 -0.8682
 4267SOL     H239001   4.957   0.936   0.659  0.1460  0.4634 -1.8463
 4268SOL    OH239002   3.882   5.750   0.044 -0.1471 -0.1019  0.1071
 4268SOL     H139003   3.841   5.665   0.058  1.4604 -0.8208  0.5604
 4268SOL     H239004   3.976   5.733   0.051  0.2030  1.6683 -0.0206
 4269SOL    OH239005   2.791   0.792   7.154  0.4483  0.2370 -0.1953
 4269SOL     H139006   2.764   0.826   7.239 -0.9038  2.0603 -1.3268
 4269SOL     H239007   2.878   0.756   7.169 -0.6132 -1.3273  2.4089
 4270SOL    OH239008   6.000   7.953   0.030  0.7937  0.1663  1.0873
 4270SOL     H139009   6.026   7.915  -0.054  0.8852 -0.2777  1.3154
 4270SOL     H239010   6.074   8.007   0.056  1.0320 -0.2122  1.1964
 4271SOL    OH239011   0.252   6.463   0.199 -0.3437  0.0223  0.0138
 4271SOL     H139012   0.251   6.527   0.128 -0.4099  0.8349  0.7308
 4271SOL     H239013   0.338   6.473   0.240  0.3368 -1.5974 -0.9607
 4272SOL    OH239014   0.445   3.391  -0.010  0.0110  0.5982  0.0580
 4272SOL     H139015   0.359   3.433  -0.007 -0.5302 -0.5163  0.2296
 4272SOL     H239016   0.486   3.416   0.073 -0.6065  0.1598  0.4992
 4273SOL    OH239017   4.872   0.522   1.790  0.3169 -0.3141  0.5550
 4273SOL     H139018   4.941   0.570   1.836 -0.0292 -0.9089  1.7031
 4273SOL     H239019   4.850   0.579   1.716  1.9802 -0.0869  0.2049
 4274SOL    OH239020   0.295   3.849   0.405 -0.1357  0.9005  0.1537
 4274SOL     H139021   0.210   3.827   0.369  0.4982 -0.6379 -0.4117
 4274SOL     H239022   0.358   3.811   0.344  0.9618  2.2180  0.4465
 4275SOL    OH239023   1.849   2.239   0.449 -0.4144  0.2978  0.0265
 4275SOL     H139024   1.816   2.255   0.360  0.1497 -0.9968 -0.4404
 4275SOL     H239025   1.809   2.307   0.502 -2.1116  0.0930 -0.9231
 4276SOL    OH239026   2.851   2.946   6.773  0.4073  0.5770 -0.0441
 4276SOL     H139027   2.889   3.028   6.806 -1.3490  1.5225 -0.3416
 4276SOL     H239028   2.774   2.931   6.827  0.2417 -0.4546 -0.5432
 4277SOL    OH239029   5.403   0.192   0.177  0.1819  0.2546 -0.1208
 4277SOL     H139030   5.363   0.189   0.090 -1.5163 -2.7557  0.6641
 4277SOL     H239031   5.344   0.247   0.229  0.7724  1.4035 -0.6498
 4278SOL    OH239032   6.081   5.438   0.515 -0.3574 -0.3329 -0.5538
 4278SOL     H139033   6.075   5.469   0.606  1.4294  0.2436 -0.6260
 4278SOL     H239034   5.990   5.424   0.489 -0.8212 -2.0695  1.8562
 4279SOL    OH239035   1.778   3.271   6.915 -0.6535  0.0409 -0.6516
 4279SOL     H139036   1.691   3.307   6.931 -0.2007  0.6878  0.3957
 4279SOL     H239037   1.837   3.344   6.932  0.0989 -0.4068 -1.3233
 4280SOL    OH239038   2.611   6.260   8.109 -0.1389  0.7530  0.1011
 4280SOL     H139039   2.678   6.328   8.118  0.3468  0.4027 -0.8328
 4280SOL     H239040   2.658   6.183   8.078 -0.6433 -0.1002  1.3981
 4281SOL    OH239041   3.287   7.125   2.248  0.0264 -0.4443  0.2140
 4281SOL     H139042   3.355   7.115   2.315  1.0883  0.0889 -0.7709
 4281SOL     H239043   3.302   7.053   2.187 -0.1162 -0.1702 -0.1482
 4282SOL    OH239044   3.915   0.987   7.136 -0.0003  0.0275  0.8237
 4282SOL     H139045   3.919   0.984   7.040 -1.6217 -2.4954  0.7901
 4282SOL     H239046   3.992   1.038   7.162  1.9953 -1.6069 -1.6813
 4283SOL    OH239047   4.038   2.580   0.577  0.0997 -1.0086  0.2223
 4283SOL     H139048   4.057   2.574   0.670  1.7073 -1.5511 -0.1218
 4283SOL     H239049   4.058   2.671   0.553 -0.9759 -0.6802  0.5283
 4284SOL    OH239050   4.224   4.424   7.843  0.3444  0.0842 -0.3751
 4284SOL     H139051   4.259   4.413   7.932  0.4402 -1.7238 -0.6170
 4284SOL     H239052   4.258   4.508   7.814  1.4544  0.0589  0.7965
 4285SOL    OH239053   1.866   4.687   6.271  0.2315  0.0271  0.1058
 4285SOL     H139054   1.946   4.734   6.292  1.7720 -2.0466 -0.8988
 4285SOL     H239055   1.858   4.621   6.341  0.9083 -1.5244 -1.2423
 4286SOL    OH239056   6.689   6.326   7.167  0.1504 -0.2380  0.1791
 4286SOL     H139057   6.631   6.258   7.202  0.1094  0.1349  0.8258
 4286SOL     H239058   6.746   6.278   7.106 -0.0420 -0.8121  0.4413
 4287SOL    OH239059   0.762   7.800   6.003  0.0440 -0.3302  0.1326
 4287SOL     H139060   0.748   7.894   6.014  0.7479 -0.4397  2.2752
 4287SOL     H239061   0.784   7.789   5.911 -0.3611  1.5723 -0.1993
 4288SOL    OH239062   6.792   1.279   6.857 -0.0090 -0.1083 -0.2701
 4288SOL     H139063   6.813   1.372   6.865  1.7952 -0.4519 -0.8407
 4288SOL     H239064   6.699   1.273   6.882 -0.6099  2.0740 -1.8226
 4289SOL    OH239065   0.498   6.501   0.323 -0.4094 -1.0301  0.3131
 4289SOL     H139066   0.559   6.433   0.296 -0.9297 -2.1149  1.7914
 4289SOL     H239067   0.517   6.514   0.416  1.3009  2.5511 -0.4703
 4290SOL    OH239068   3.975   1.089   5.541  0.6638  0.1472 -0.3916
 4290SOL     H139069   3.901   1.147   5.519 -0.9075 -1.1254  1.4039
 4290SOL     H239070   4.049   1.149   5.552 -0.5030  1.6430 -0.4265
 4291SOL    OH239071   6.110   3.571   6.624 -0.6040 -0.5033  0.0296
 4291SOL     H139072   6.071   3.651   6.587  2.0304 -0.4284 -2.7454
 4291SOL     H239073   6.172   3.602   6.690  0.3406 -0.2550 -0.9725
 4292SOL    OH239074   5.401   7.867   0.643 -0.0190  0.2509  0.2432
 4292SOL     H139075   5.342   7.838   0.574 -0.2231  1.4030 -0.0720
 4292SOL     H239076   5.354   7.847   0.724  0.0631 -0.7626  0.0374
 4293SOL    OH239077   6.298   4.020   6.420 -0.3339 -0.2865  0.5490
 4293SOL     H139078   6.387   4.017   6.385 -0.4618  1.9528 -0.0522
 4293SOL     H239079   6.243   3.985   6.350 -0.0725 -0.5423  0.4687
 4294SOL    OH239080   7.649   5.989   7.790 -0.1643 -0.3701  0.2363
 4294SOL     H139081   7.623   5.906   7.830 -1.0422 -0.1100  0.2336
 4294SOL     H239082   7.645   5.972   7.696 -0.7101 -0.2187  0.2320
 4295SOL    OH239083   3.051   1.056   5.515  0.0774  0.4633 -0.4740
 4295SOL     H139084   3.055   0.961   5.525 -0.1302  0.6091  1.0840
 4295SOL     H239085   3.112   1.076   5.444  2.6309 -0.5011  1.4240
 4296SOL    OH239086   2.109   4.242   6.559 -0.2662  0.2489 -0.4382
 4296SOL     H139087   2.141   4.330   6.538 -1.2958  0.9497  0.8900
 4296SOL     H239088   2.035   4.257   6.618 -0.6804 -1.4986 -0.5059
 4297SOL    OH239089   4.060   2.680   7.751  0.2881  0.2671 -0.0511
 4297SOL     H139090   4.132   2.634   7.708 -0.1498  0.8025 -1.4090
 4297SOL     H239091   3.984   2.623   7.737  0.4789 -0.3700  1.5078
 4298SOL    OH239092   2.891   2.427   1.921 -0.4505 -0.0011  0.0420
 4298SOL     H139093   2.930   2.388   2.000 -0.5807  0.6506  0.4268
 4298SOL     H239094   2.814   2.372   1.904 -0.5664  0.0096  0.5139
 4299SOL    OH239095   1.249   5.182   6.447  0.4291  0.6464 -0.1751
 4299SOL     H139096   1.281   5.169   6.536  0.9296 -1.4286 -0.6412
 4299SOL     H239097   1.286   5.266   6.420  3.1499 -0.3757  0.3026
 4300SOL    OH239098   7.542   5.950   0.412  0.2122 -0.0697  0.1806
 4300SOL     H139099   7.485   5.969   0.487 -0.2387  0.7586 -0.3692
 4300SOL     H239100   7.502   5.872   0.372 -0.2683  0.2259  0.0744
 4301SOL    OH239101   2.428   4.766   6.897  0.2751  0.2013  0.6471
 4301SOL     H139102   2.370   4.691   6.910  0.5544 -0.6597 -2.7109
 4301SOL     H239103   2.498   4.733   6.840  1.2214  2.6203  0.3401
 4302SOL    OH239104   2.087   7.490   6.552  0.3130  0.0472 -0.5556
 4302SOL     H139105   2.080   7.577   6.513  0.2937  0.3864  0.1875
 4302SOL     H239106   2.027   7.436   6.501 -1.3890  1.0012  0.3847
 4303SOL    OH239107   3.517   3.256   0.783 -0.1758 -0.6597 -0.5154
 4303SOL     H139108   3.470   3.286   0.706 -1.2250  1.7594  0.9869
 4303SOL     H239109   3.604   3.295   0.775 -0.8361  1.0226  0.3492
 4304SOL    OH239110   5.935   6.683   6.503 -0.2504 -0.4086 -0.4346
 4304SOL     H139111   5.938   6.591   6.475 -2.4228 -0.1587 -1.5415
 4304SOL     H239112   5.959   6.680   6.596  0.7163 -1.9743 -0.7180
 4305SOL    OH239113   7.562   4.156   1.786  0.0352 -0.0876  0.4816
 4305SOL     H139114   7.586   4.207   1.709  0.2824  0.7535  1.0972
 4305SOL     H239115   7.619   4.190   1.856 -2.4028  1.5024  1.8145
 4306SOL    OH239116   0.085   1.280   8.206 -0.1143  0.3930  0.0535
 4306SOL     H139117   0.010   1.282   8.147 -0.5974 -0.8183  0.6153
 4306SOL     H239118   0.067   1.349   8.270  0.8432  2.3466 -1.6879
 4307SOL    OH239119   7.181   7.575   6.682  1.0998 -0.7003  0.7226
 4307SOL     H139120   7.207   7.559   6.591  3.1065  0.4041  1.0641
 4307SOL     H239121   7.197   7.669   6.696 -3.6053  0.1861  0.8778
 4308SOL    OH239122   3.411   5.779   0.723  0.1257 -0.1765 -0.5381
 4308SOL     H139123   3.372   5.716   0.784  0.4579 -0.4662 -0.6190
 4308SOL     H239124   3.490   5.810   0.768  0.1659 -0.1053 -0.6579
 4309SOL    OH239125   0.102   1.612   8.051  0.7332  0.0104  0.1558
 4309SOL     H139126   0.088   1.524   8.017  1.4818  0.0219 -0.1975
 4309SOL     H239127   0.022   1.632   8.099 -0.5386  0.1851 -2.0072
 4310SOL    OH239128   0.300   7.922   6.683 -0.2271  0.1980  0.3090
 4310SOL     H139129   0.263   7.847   6.636  0.9611  0.6824 -1.4685
 4310SOL     H239130   0.374   7.885   6.731  2.2645  0.6935 -2.9894
 4311SOL    OH239131   0.802   5.589   0.287 -0.5547 -0.4614 -0.4500
 4311SOL     H139132   0.737   5.533   0.245 -2.1600  0.5597  0.6047
 4311SOL     H239133   0.759   5.619   0.367  0.2787  2.2364 -0.9803
 4312SOL    OH239134   0.942   6.012   2.247 -0.5426  0.5557 -0.4053
 4312SOL     H139135   0.856   5.997   2.209 -0.7999 -1.0498  0.7528
 4312SOL     H239136   1.002   6.009   2.173 -1.2648 -0.4666 -0.9570
 4313SOL    OH239137   1.774   2.836   7.809 -0.0130 -0.0549  0.1815
 4313SOL     H139138   1.792   2.929   7.821 -0.8524 -0.0456  1.3422
 4313SOL     H239139   1.819   2.793   7.882 -1.7858 -0.3293  1.1313
 4314SOL    OH239140   5.086   6.021   8.140 -0.2222 -0.0679  0.0824
 4314SOL     H139141   5.018   5.988   8.082 -1.5188  0.6729  1.1437
 4314SOL     H239142   5.042   6.036   8.223  1.5970 -1.0731  1.2731
 4315SOL    OH239143   1.468   3.443   0.682 -0.0230 -0.3726 -0.1111
 4315SOL     H139144   1.446   3.350   0.670 -0.4562 -0.3488  0.4892
 4315SOL     H239145   1.508   3.469   0.599  2.2937 -1.7133  0.5490
 4316SOL    OH239146   1.464   1.440   0.400  0.1957  0.1052  0.8489
 4316SOL     H139147   1.390   1.401   0.446  0.9096  0.3078  2.1854
 4316SOL     H239148   1.535   1.440   0.464  1.5168 -0.5655 -0.5735
 4317SOL    OH239149   2.336   6.114   6.221  0.5721 -0.2546 -0.4012
 4317SOL     H139150   2.296   6.041   6.174  0.2842  0.5089 -1.3625
 4317SOL     H239151   2.288   6.191   6.191  1.0349  0.3593  0.4125
 4318SOL    OH239152   0.832   7.736   8.061  0.1444 -0.6128  0.5002
 4318SOL     H139153   0.779   7.707   8.135  1.9241 -1.1736  1.5999
 4318SOL     H239154   0.850   7.829   8.080  0.1208 -0.6063  0.4905
 4319SOL    OH239155   0.935   3.151   1.861 -0.3440 -0.7112 -0.1498
 4319SOL     H139156   0.956   3.171   1.770 -0.1165 -1.7737 -0.3443
 4319SOL     H239157   0.845   3.117   1.857 -0.2676 -0.9309 -0.0045
 4320SOL    OH239158   5.036   7.768   8.173 -0.1556  0.3347  0.0015
 4320SOL     H139159   5.120   7.813   8.169  0.0559 -0.1343 -1.0847
 4320SOL     H239160   5.058   7.677   8.195 -0.3220  0.0951 -0.7904
 4321SOL    OH239161   5.015   5.394   0.606 -0.2311  0.3051 -0.7430
 4321SOL     H139162   5.087   5.450   0.635 -0.2367  0.1399 -0.4142
 4321SOL     H239163   4.955   5.390   0.680 -0.1397 -0.2872 -0.6982
 4322SOL    OH239164   6.478   7.557   1.111 -0.3562  0.3895  0.2214
 4322SOL     H139165   6.433   7.485   1.067  0.2203 -0.1925  0.5792
 4322SOL     H239166   6.409   7.601   1.163  0.0048 -2.2116  3.0200
 4323SOL    OH239167   3.794   3.940   7.610  0.0768 -0.6632 -0.4903
 4323SOL     H139168   3.826   4.022   7.574 -0.5163  0.0864  0.6242
 4323SOL     H239169   3.706   3.931   7.574 -1.5542  1.4201  2.6532
 4324SOL    OH239170   6.325   3.177   0.180 -0.0776  0.6147 -0.3087
 4324SOL     H139171   6.309   3.166   0.086 -1.8977 -3.3561  0.3387
 4324SOL     H239172   6.250   3.227   0.211 -0.6064  0.0179 -0.6175
 4325SOL    OH239173   5.895   3.384   2.082 -0.3569  0.2277 -0.1046
 4325SOL     H139174   5.844   3.303   2.071  1.3658 -1.0272  0.8752
 4325SOL     H239175   5.972   3.371   2.027  1.0690  0.1850  1.8410
 4326SOL    OH239176   2.365   3.009   7.851  0.5099 -0.0621 -0.7833
 4326SOL     H139177   2.380   2.946   7.921  0.2198  0.5203 -0.1826
 4326SOL     H239178   2.367   3.094   7.896 -1.0648  0.2338 -1.2560
 4327SOL    OH239179   3.816   2.657   6.550  0.4340  0.4317 -0.7104
 4327SOL     H139180   3.801   2.671   6.457  3.1030  2.7866 -0.8452
 4327SOL     H239181   3.739   2.694   6.593  0.4813  1.8697 -1.8422
 4328SOL    OH239182   5.876   0.909   2.105 -0.1043 -0.0717 -0.2340
 4328SOL     H139183   5.920   0.896   2.188  0.4257 -0.4441 -0.5668
 4328SOL     H239184   5.790   0.870   2.117  0.2089 -0.7167 -0.0711
 4329SOL    OH239185   6.598   6.587  -0.001 -0.0089  0.1639 -0.2852
 4329SOL     H139186   6.606   6.682   0.007 -1.1374  0.3259 -1.0494
 4329SOL     H239187   6.574   6.557   0.086  0.5119  0.5529 -0.0023
 4330SOL    OH239188   2.969   0.149   0.524 -0.6148  0.6478 -0.1833
 4330SOL     H139189   2.932   0.126   0.609 -1.2346 -0.2346 -0.6836
 4330SOL     H239190   2.908   0.111   0.460  0.8926 -0.4054 -1.0217
 4331SOL    OH239191   6.146   2.177   8.081  0.0357  0.4281 -0.1232
 4331SOL     H139192   6.143   2.124   8.001  3.0000 -0.2296  0.1533
 4331SOL     H239193   6.161   2.266   8.049  0.5594  0.2651 -0.3423
 4332SOL    OH239194   7.184   3.947   6.363  0.2885  0.3842  0.4827
 4332SOL     H139195   7.173   3.900   6.281 -0.6740  1.8485 -0.2490
 4332SOL     H239196   7.112   3.916   6.419 -0.5873  1.2425 -0.1416
 4333SOL    OH239197   5.648   2.023   1.526 -0.1945  0.0010  0.0871
 4333SOL     H139198   5.733   2.010   1.484  0.0070  1.6418 -0.0663
 4333SOL     H239199   5.611   1.936   1.533  2.5578 -1.0773  2.3969
 4334SOL    OH239200   4.286   7.935   6.516 -0.6229  0.0137 -0.0769
 4334SOL     H139201   4.268   7.904   6.427 -1.2899  1.6396 -0.5121
 4334SOL     H239202   4.338   8.014   6.504 -0.7334  0.2527  0.9943
 4335SOL    OH239203   0.728   7.433   6.472 -0.4873 -0.4014  0.3770
 4335SOL     H139204   0.709   7.524   6.498 -0.5719 -0.0655 -0.8591
 4335SOL     H239205   0.692   7.425   6.384  0.7866 -1.2037 -0.0779
 4336SOL    OH239206   4.710   7.895   6.696 -0.3614 -0.1159 -0.2534
 4336SOL     H139207   4.739   7.840   6.622 -0.7503  0.5090 -0.8764
 4336SOL     H239208   4.790   7.913   6.745  0.2657  1.2785 -1.7515
 4337SOL    OH239209   5.518   2.096   8.073 -0.1061  0.0835  0.0929
 4337SOL     H139210   5.425   2.083   8.088 -0.0853 -1.5373 -1.0392
 4337SOL     H239211   5.523   2.152   7.996 -0.1499 -0.9363 -0.6602
 4338SOL    OH239212   3.011   5.760   5.790  0.6233  0.1055 -0.2234
 4338SOL     H139213   2.922   5.730   5.804  0.6871  0.2341  0.4686
 4338SOL     H239214   3.018   5.772   5.695 -0.3326  0.8332 -0.2017
 4339SOL    OH239215   1.636   1.615   0.215 -0.2675 -0.1932 -0.0447
 4339SOL     H139216   1.595   1.561   0.282  0.6107 -0.4105  0.3227
 4339SOL     H239217   1.612   1.573   0.132  0.8954 -1.5025  0.2659
 4340SOL    OH239218   1.334   5.427   6.388 -0.7197 -0.7889  0.4938
 4340SOL     H139219   1.385   5.450   6.466  0.3402  0.0996 -0.4398
 4340SOL     H239220   1.291   5.508   6.363  0.7014 -0.4934 -1.1136
 4341SOL    OH239221   5.410   3.445   0.635 -0.2858 -0.2575 -0.3576
 4341SOL     H139222   5.414   3.386   0.711  1.8831 -0.2125 -0.4117
 4341SOL     H239223   5.380   3.528   0.671 -2.2982 -1.0639 -0.0922
 4342SOL    OH239224   7.395   4.706   2.014  0.1753 -0.5080  0.3143
 4342SOL     H139225   7.423   4.632   1.961  0.6999  1.1400 -1.7411
 4342SOL     H239226   7.475   4.755   2.033 -0.1511 -0.5023  1.7720
 4343SOL    OH239227   7.733   0.118   0.638 -0.7280 -0.3317  0.5689
 4343SOL     H139228   7.664   0.059   0.666 -1.4778 -0.3208 -1.1645
 4343SOL     H239229   7.688   0.195   0.604  0.2363  1.1718  2.5933
 4344SOL    OH239230   3.494   6.144   7.093  0.3944  0.4179 -0.0790
 4344SOL     H139231   3.558   6.153   7.165  1.3628 -2.2014 -0.5449
 4344SOL     H239232   3.483   6.050   7.083 -1.7833  0.8015 -1.6164
 4345SOL    OH239233   5.956   4.010   7.307 -0.6205  0.3721  0.4061
 4345SOL     H139234   5.911   3.936   7.267  0.2140  0.0775 -0.0102
 4345SOL     H239235   6.038   3.973   7.340  0.7084  1.4717 -1.5530
 4346SOL    OH239236   4.269   3.237   0.790 -0.3112 -0.1457 -0.0497
 4346SOL     H139237   4.332   3.199   0.852  0.3292  1.9675  0.6334
 4346SOL     H239238   4.311   3.317   0.760 -2.3327  0.8796 -0.1914
 4347SOL    OH239239   5.619   1.123   6.055 -0.0723  0.7874 -0.3723
 4347SOL     H139240   5.606   1.177   5.977 -0.2437  0.9126 -0.2551
 4347SOL     H239241   5.536   1.128   6.103  0.6743  2.2469  0.7906
 4348SOL    OH239242   3.547   1.383   7.966 -0.6158  0.1316  0.1288
 4348SOL     H139243   3.500   1.457   7.927 -0.8020 -0.1436 -0.1726
 4348SOL     H239244   3.479   1.317   7.982 -0.4561  0.0368  0.4228
 4349SOL    OH239245   2.363   2.318   7.181  0.4694  0.2925 -0.4460
 4349SOL     H139246   2.380   2.412   7.174  0.1272  0.4743  1.0049
 4349SOL     H239247   2.416   2.290   7.255 -0.6104 -0.3635  0.0854
 4350SOL    OH239248   5.434   6.687   0.677 -0.3163  0.0700  0.1016
 4350SOL     H139249   5.365   6.673   0.612 -0.3998  1.4148 -0.1123
 4350SOL     H239250   5.515   6.672   0.629 -0.4012  0.3431 -0.1296
 4351SOL    OH239251   0.662   2.350   6.354  0.1487 -0.5158  0.6373
 4351SOL     H139252   0.650   2.259   6.381  1.5611 -0.7607  0.4627
 4351SOL     H239253   0.646   2.350   6.260  0.5904 -0.6612  0.5640
 4352SOL    OH239254   6.683   6.782   1.289  0.1696 -0.1146  0.6049
 4352SOL     H139255   6.703   6.843   1.218  1.2551 -1.1248  0.0290
 4352SOL     H239256   6.639   6.709   1.246 -0.2827 -0.1640  1.1526
 4353SOL    OH239257   2.534   0.194   6.851 -0.1222  0.1368 -0.0470
 4353SOL     H139258   2.455   0.196   6.905 -0.5591 -1.1780 -0.6151
 4353SOL     H239259   2.605   0.181   6.914 -0.6308 -1.3724  0.2492
 4354SOL    OH239260   1.974   1.996   8.272 -0.3922 -0.1773  0.3084
 4354SOL     H139261   1.914   2.013   8.199  0.5452  0.8341 -0.2330
 4354SOL     H239262   2.038   2.066   8.267 -0.6357  0.2254  2.4642
 4355SOL    OH239263   7.656   7.494   0.310 -0.1567 -0.2601  0.1138
 4355SOL     H139264   7.580   7.534   0.351  0.7380  1.0525  0.5369
 4355SOL     H239265   7.678   7.552   0.238  0.1692 -0.8769 -0.2896
 4356SOL    OH239266   1.251   6.717   8.072  0.4123  0.3589 -0.0815
 4356SOL     H139267   1.311   6.757   8.009 -0.7125  2.4232  0.1052
 4356SOL     H239268   1.272   6.758   8.156  0.2398 -0.5408  0.4039
 4357SOL    OH239269   1.124   3.877   1.942  0.0002 -0.4309  0.2857
 4357SOL     H139270   1.188   3.925   1.889  0.5073 -0.7347  0.6189
 4357SOL     H239271   1.162   3.876   2.030 -0.6918 -0.2024  0.5900
 4358SOL    OH239272   6.548   3.825   2.684  0.0957  0.1326  0.2151
 4358SOL     H139273   6.628   3.829   2.736 -0.9719 -0.1489  1.8976
 4358SOL     H239274   6.578   3.837   2.594  1.9331  0.9465  0.9034
 4359SOL    OH239275   4.978   0.912   0.226 -0.0174  0.6015 -0.5246
 4359SOL     H139276   4.922   0.915   0.149 -1.0981  1.3566  0.2784
 4359SOL     H239277   4.923   0.875   0.295  0.0758  2.3977  0.5714
 4360SOL    OH239278   2.735   2.417   7.531 -0.1235 -0.5109 -0.3942
 4360SOL     H139279   2.814   2.368   7.556  1.0413  0.9688 -1.0853
 4360SOL     H239280   2.736   2.417   7.436 -0.0914  0.8949 -0.3916
 4361SOL    OH239281   5.709   4.126   0.081  0.2364 -0.0216  0.1989
 4361SOL     H139282   5.781   4.076   0.042  1.9368  1.8204  0.8409
 4361SOL     H239283   5.647   4.060   0.111  1.8202 -1.6887 -0.0878
 4362SOL    OH239284   5.722   6.818   6.404  0.3128 -0.5788 -0.1678
 4362SOL     H139285   5.727   6.792   6.312  0.0916 -1.7618  0.1431
 4362SOL     H239286   5.806   6.792   6.441  0.4234 -0.0523 -0.0516
 4363SOL    OH239287   0.816   3.111   2.173  0.1646 -0.2177 -0.1842
 4363SOL     H139288   0.857   3.185   2.128  0.2727 -0.2121 -0.0770
 4363SOL     H239289   0.729   3.105   2.135 -0.3459  0.8344  0.7700
 4364SOL    OH239290   5.821   5.800   1.503 -0.2355  0.9348  0.3532
 4364SOL     H139291   5.893   5.807   1.440  0.8709 -1.2480  1.3063
 4364SOL     H239292   5.750   5.757   1.454  0.3315 -0.0120  0.3480
 4365SOL    OH239293   2.211   7.466   0.535 -1.0013 -0.2573  0.4314
 4365SOL     H139294   2.209   7.382   0.490  2.4234 -0.4301  0.5033
 4365SOL     H239295   2.171   7.449   0.621 -0.1327 -1.8498  0.5251
 4366SOL    OH239296   2.418   5.317   0.498  0.6699 -0.1391  0.2984
 4366SOL     H139297   2.503   5.332   0.457  0.4842 -1.5773 -0.6635
 4366SOL     H239298   2.415   5.223   0.513 -0.6385 -0.0626  0.5692
 4367SOL    OH239299   0.435   2.488   0.294  0.1139  0.4556  0.2669
 4367SOL     H139300   0.374   2.481   0.367  2.9833  1.1021  2.8135
 4367SOL     H239301   0.500   2.420   0.310  2.7506  2.8836  0.3170
 4368SOL    OH239302   6.278   4.929   8.125  0.8080  0.2409  0.5031
 4368SOL     H139303   6.239   4.915   8.039 -0.0139 -3.5126  1.4128
 4368SOL     H239304   6.337   4.855   8.138 -0.5127 -0.3062  3.9390
 4369SOL    OH239305   3.782   1.322   7.048  0.4048  0.9659 -1.1125
 4369SOL     H139306   3.844   1.316   6.975 -0.1863 -0.5594 -1.5027
 4369SOL     H239307   3.836   1.315   7.127  0.5355 -2.7101 -1.4618
 4370SOL    OH239308   1.700   6.263   2.149  0.7239 -0.1746  0.0473
 4370SOL     H139309   1.687   6.168   2.159  0.3394 -0.1304 -0.0075
 4370SOL     H239310   1.790   6.278   2.178  1.4403 -0.8224 -1.8201
 4371SOL    OH239311   1.895   3.108   0.211  0.0698 -0.2203  0.0113
 4371SOL     H139312   1.833   3.123   0.140 -2.1653 -0.8173  1.7511
 4371SOL     H239313   1.889   3.013   0.228 -0.3971  0.0924  1.7680
 4372SOL    OH239314   4.995   4.318   7.121  0.0657  0.4898 -0.1460
 4372SOL     H139315   4.977   4.307   7.215  0.7374  0.8325  0.0255
 4372SOL     H239316   5.035   4.404   7.115  1.2673 -0.0984 -0.5758
 4373SOL    OH239317   1.021   4.264   1.466 -0.1272 -0.1751 -0.2660
 4373SOL     H139318   0.999   4.183   1.422 -0.3124  0.0299 -0.5477
 4373SOL     H239319   0.957   4.272   1.537  0.3025 -0.6128  0.1758
 4374SOL    OH239320   5.224   3.767   6.960  0.2223 -0.1661  0.4235
 4374SOL     H139321   5.225   3.799   6.870 -0.2116  0.0604  0.5011
 4374SOL     H239322   5.172   3.831   7.008  1.6533  0.4903  1.1265
 4375SOL    OH239323   3.841   6.107   6.987 -0.3907 -0.5464 -0.0464
 4375SOL     H139324   3.809   6.181   7.039  2.0777  1.2268 -0.9485
 4375SOL     H239325   3.857   6.038   7.051 -0.4989  0.4819  1.1171
 4376SOL    OH239326   4.080   4.557   2.657  0.3547 -0.4668 -0.4617
 4376SOL     H139327   4.099   4.516   2.741  3.2255  3.0937  0.7362
 4376SOL     H239328   4.003   4.611   2.673  1.6016  1.1292  0.2340
 4377SOL    OH239329   5.052   1.277   7.069 -0.3470 -0.0898  0.2170
 4377SOL     H139330   5.143   1.295   7.045 -0.6092 -1.4622 -1.9763
 4377SOL     H239331   5.058   1.219   7.145  0.5650  1.8157  1.6195
 4378SOL    OH239332   6.493   2.982   1.214 -0.0667 -0.5342  0.1566
 4378SOL     H139333   6.412   3.020   1.247  0.5691 -0.0187  1.1208
 4378SOL     H239334   6.524   3.046   1.149 -0.4335 -0.7464 -0.2365
 4379SOL    OH239335   0.612   4.066   8.153  0.6329  0.1773  0.6245
 4379SOL     H139336   0.630   3.992   8.213  0.0935 -0.5322 -0.0822
 4379SOL     H239337   0.644   4.143   8.200 -1.7270 -0.0904  2.7775
 4380SOL    OH239338   1.191   1.979   0.124 -0.1861 -0.3233  0.0004
 4380SOL     H139339   1.236   1.958   0.206  0.1790 -2.3354 -0.6681
 4380SOL     H239340   1.261   2.005   0.064 -0.2850 -0.2834 -0.0977
 4381SOL    OH239341   2.885   6.862   6.643 -0.2428  0.5207 -0.0898
 4381SOL     H139342   2.856   6.876   6.733  0.0050 -0.3804  0.1309
 4381SOL     H239343   2.819   6.906   6.589  0.2073  2.0632  0.5651
 4382SOL    OH239344   1.978   1.607   5.815 -0.3289 -0.1263 -0.3408
 4382SOL     H139345   2.044   1.539   5.822 -0.3083  0.0142  0.8239
 4382SOL     H239346   1.908   1.579   5.874 -1.2934 -0.2445 -1.5108
 4383SOL    OH239347   7.834   5.890   0.897  0.5052  0.2718  0.3886
 4383SOL     H139348   7.858   5.959   0.958 -0.7351  0.3948  0.7526
 4383SOL     H239349   7.739   5.899   0.887  0.3415 -1.3131  0.3758
 4384SOL    OH239350   5.663   3.033   8.030  0.1001 -0.5530 -0.3453
 4384SOL     H139351   5.702   3.008   8.113  1.7219 -0.9826 -1.2218
 4384SOL     H239352   5.576   3.067   8.053  0.6180 -0.4763  1.5207
 4385SOL    OH239353   5.665   4.272   2.900 -0.4662 -0.1520 -0.1850
 4385SOL     H139354   5.729   4.339   2.923 -0.9216  0.3879 -0.4637
 4385SOL     H239355   5.678   4.202   2.964 -0.1303  0.2967  0.2370
 4386SOL    OH239356   5.763   3.754   1.351  0.0339  0.5498 -0.0239
 4386SOL     H139357   5.808   3.804   1.419 -1.4791 -0.2455  1.6068
 4386SOL     H239358   5.834   3.712   1.302  1.1645  1.4319  0.8191
 4387SOL    OH239359   1.271   5.636   1.666 -0.0413 -0.2252 -0.4729
 4387SOL     H139360   1.186   5.677   1.682 -0.9226 -2.9264  2.1230
 4387SOL     H239361   1.257   5.582   1.588  0.0056  1.1328 -1.4523
 4388SOL    OH239362   2.839   2.365   1.577  0.0220  0.2148  0.2401
 4388SOL     H139363   2.826   2.353   1.483 -1.1222 -1.2134  0.5674
 4388SOL     H239364   2.838   2.460   1.589  0.2718  0.4194 -1.1844
 4389SOL    OH239365   2.929   1.061   1.504  0.2028  0.1123 -0.6358
 4389SOL     H139366   2.941   1.152   1.477  0.6770 -0.0319 -0.9190
 4389SOL     H239367   3.016   1.034   1.534  0.2633 -0.5139 -1.3723
 4390SOL    OH239368   6.958   7.289   1.299 -0.0553  0.1305 -0.5379
 4390SOL     H139369   6.975   7.362   1.358 -0.4718  0.2699 -0.5903
 4390SOL     H239370   7.026   7.225   1.321  0.9531  0.9551 -1.2022
 4391SOL    OH239371   4.784   7.035   0.217  0.6412  0.0158 -0.7599
 4391SOL     H139372   4.824   6.967   0.271  1.5241  1.6815  0.6923
 4391SOL     H239373   4.851   7.103   0.209 -1.1758  1.9396  0.0237
 4392SOL    OH239374   4.614   4.955   1.021 -0.3971  0.5855 -0.1270
 4392SOL     H139375   4.647   4.866   1.030  0.3109  0.9694  1.2219
 4392SOL     H239376   4.523   4.945   0.993  0.3032 -0.5147 -2.0565
 4393SOL    OH239377   6.113   3.125   7.172 -0.4655  0.0707 -0.4272
 4393SOL     H139378   6.063   3.181   7.111  0.9532  0.6616 -1.0899
 4393SOL     H239379   6.079   3.147   7.258 -2.0529 -0.2867 -0.9545
 4394SOL    OH239380   0.327   4.333   0.134  0.0707  0.1192 -0.3117
 4394SOL     H139381   0.294   4.286   0.211  1.4311 -0.2280  0.0594
 4394SOL     H239382   0.356   4.417   0.169 -1.0772  0.7128 -0.7597
 4395SOL    OH239383   5.633   6.711   0.484 -0.2490 -0.1398  0.0116
 4395SOL     H139384   5.705   6.772   0.497 -1.8796  1.9949 -0.6390
 4395SOL     H239385   5.662   6.653   0.414  1.9738 -1.1795  1.7569
 4396SOL    OH239386   0.714   7.795   2.097  0.2872 -0.3608  0.3837
 4396SOL     H139387   0.674   7.855   2.035 -0.2723 -0.2827  0.8126
 4396SOL     H239388   0.790   7.760   2.051 -0.6294 -0.9907 -0.6740
 4397SOL    OH239389   6.577   5.759   6.801 -0.1172  0.6481 -0.5889
 4397SOL     H139390   6.557   5.682   6.854 -1.0060  0.7879 -0.7140
 4397SOL     H239391   6.641   5.809   6.853 -0.3447  0.3609 -0.0411
 4398SOL    OH239392   4.411   5.710   6.149 -0.6069  0.0529  0.3575
 4398SOL     H139393   4.384   5.697   6.059 -2.0816 -2.3059  1.0931
 4398SOL     H239394   4.507   5.703   6.147 -0.6966 -0.9215 -0.8842
 4399SOL    OH239395   0.417   4.119   1.588  0.4121  0.3055 -0.1796
 4399SOL     H139396   0.408   4.093   1.496  0.9062 -0.8778  0.0879
 4399SOL     H239397   0.458   4.206   1.585 -0.9006  0.8941 -1.1008
 4400SOL    OH239398   2.024   6.035   6.810 -0.5295  0.0734 -0.1723
 4400SOL     H139399   1.937   6.061   6.779 -2.3280 -1.1700  3.5910
 4400SOL     H239400   2.056   6.111   6.859  0.1314  0.1691 -0.7412
 4401SOL    OH239401   0.073   0.155   7.764 -0.5986 -0.1141 -0.3799
 4401SOL     H139402   0.118   0.183   7.844  0.5885  1.1140 -1.4747
 4401SOL     H239403   0.104   0.066   7.749 -0.6348 -0.2575  0.3775
 4402SOL    OH239404   0.087   7.121   0.846 -0.4207 -0.3188  0.0448
 4402SOL     H139405  -0.005   7.138   0.824 -0.4163 -0.1448  0.1603
 4402SOL     H239406   0.114   7.052   0.785 -0.9422 -1.1356  0.7376
 4403SOL    OH239407   4.917   4.774   7.732  0.2759  0.0532  0.2633
 4403SOL     H139408   4.965   4.857   7.727 -1.7454  1.2174 -0.6071
 4403SOL     H239409   4.840   4.788   7.677  0.7123 -2.9728 -1.2194
 4404SOL    OH239410   7.165   1.610   1.933 -0.4421  0.2454  0.3913
 4404SOL     H139411   7.183   1.574   2.020 -0.5693  0.7532  0.6268
 4404SOL     H239412   7.202   1.698   1.935 -1.1881  0.5607  0.2012
 4405SOL    OH239413   7.056   1.677   7.206  0.1941 -0.0046 -0.8178
 4405SOL     H139414   7.145   1.702   7.229 -0.1093  0.1098  0.2303
 4405SOL     H239415   7.006   1.684   7.287 -0.9691  0.7747 -1.5807
 4406SOL    OH239416   6.208   2.430   2.437  0.2080  0.2810 -0.0888
 4406SOL     H139417   6.124   2.457   2.473  0.0155 -0.0315 -0.2989
 4406SOL     H239418   6.188   2.399   2.348  0.3153 -1.1740  0.3773
 4407SOL    OH239419   0.845   6.198   7.928 -0.1856 -0.0722  0.7465
 4407SOL     H139420   0.891   6.282   7.935 -0.7645  0.2855  0.2967
 4407SOL     H239421   0.756   6.222   7.905 -0.4868 -0.7895  1.1677
 4408SOL    OH239422   4.828   3.736   1.234 -0.0649  0.1934  0.3835
 4408SOL     H139423   4.817   3.663   1.295 -1.8207  0.3012  0.2307
 4408SOL     H239424   4.805   3.813   1.285  1.5384  0.6252  0.4682
 4409SOL    OH239425   6.031   0.431   1.311  0.8970 -0.0280 -0.6314
 4409SOL     H139426   6.061   0.514   1.273  2.7792 -0.2408  0.3509
 4409SOL     H239427   6.011   0.376   1.235  0.6998  0.9399 -1.2927
 4410SOL    OH239428   5.964   6.820   5.745  0.1174 -0.0893  0.1573
 4410SOL     H139429   5.911   6.868   5.809  0.2999  0.2781  0.0353
 4410SOL     H239430   5.943   6.728   5.761 -1.9837  0.1376 -1.1817
 4411SOL    OH239431   1.508   2.960   7.856  0.0534 -0.7456  0.2780
 4411SOL     H139432   1.555   2.909   7.922  0.4931 -0.6132  0.0699
 4411SOL     H239433   1.575   3.016   7.817 -0.2045 -0.8202 -0.2781
 4412SOL    OH239434   3.707   2.705   7.183  0.5702  0.4098  0.2482
 4412SOL     H139435   3.764   2.684   7.258  0.2448 -0.8915  0.1402
 4412SOL     H239436   3.750   2.663   7.109  0.5545  1.1694 -0.1877
 4413SOL    OH239437   4.084   7.709   0.468 -0.1017  0.3175  0.1695
 4413SOL     H139438   4.042   7.627   0.441 -1.5717  1.1472 -0.1470
 4413SOL     H239439   4.157   7.719   0.407 -0.8066 -0.0168 -0.7459
 4414SOL    OH239440   7.376   6.727   6.664  0.2138 -0.2876 -0.2436
 4414SOL     H139441   7.421   6.644   6.683  0.2935  0.1824  1.7405
 4414SOL     H239442   7.284   6.710   6.683  0.3930  0.3905  1.3692
 4415SOL    OH239443   7.631   0.294   7.116  0.3963 -0.2091 -0.1413
 4415SOL     H139444   7.565   0.363   7.123  1.8906  1.1410  1.0726
 4415SOL     H239445   7.696   0.328   7.055 -0.0983 -1.6322 -1.5219
 4416SOL    OH239446   4.505   4.170   5.864 -0.4887  0.5576  0.1799
 4416SOL     H139447   4.459   4.120   5.797  1.5521 -0.5244 -0.4560
 4416SOL     H239448   4.515   4.109   5.937 -0.0794  0.7736  0.3090
 4417SOL    OH239449   0.143   4.040   6.624  0.7792 -0.4227  0.0455
 4417SOL     H139450   0.105   4.090   6.553  1.4787 -1.0659 -0.7934
 4417SOL     H239451   0.071   4.024   6.685 -0.3276 -1.7854 -1.6037
 4418SOL    OH239452   7.491   1.863   6.444 -0.6111  0.0891 -0.0386
 4418SOL     H139453   7.473   1.839   6.535 -1.1916  0.1753 -0.1279
 4418SOL     H239454   7.453   1.951   6.435  0.3724  0.5145 -0.0645
 4419SOL    OH239455   2.548   2.953   8.105 -0.3243  0.4066 -0.0976
 4419SOL     H139456   2.631   3.000   8.109 -0.4731  0.7977 -1.3320
 4419SOL     H239457   2.486   3.010   8.150 -0.1056  0.5246  0.0560
 4420SOL    OH239458   0.965   2.918   2.018 -0.4052 -0.3052 -0.2445
 4420SOL     H139459   0.912   2.968   2.080  0.5602 -0.5720  0.7914
 4420SOL     H239460   0.965   2.972   1.939 -1.2721  0.2428  0.1126
 4421SOL    OH239461   4.060   6.252   8.015 -0.4443 -0.2460 -0.5665
 4421SOL     H139462   4.054   6.330   8.070 -0.3608  0.0113 -0.9204
 4421SOL     H239463   4.069   6.286   7.926  1.0671 -0.6580 -0.5727
 4422SOL    OH239464   5.279   5.446   6.464 -0.4883 -0.1494  0.5771
 4422SOL     H139465   5.303   5.364   6.420  2.1663  1.0782 -0.3639
 4422SOL     H239466   5.285   5.513   6.397 -1.8024  0.9673  1.5408
 4423SOL    OH239467   1.683   2.489   7.810 -0.1367 -0.2769  0.2886
 4423SOL     H139468   1.629   2.487   7.889 -0.3124  0.8040  0.2065
 4423SOL     H239469   1.739   2.412   7.817  0.0363 -0.0377  1.5947
 4424SOL    OH239470   0.253   3.250   6.252  0.2377 -1.0692  0.3794
 4424SOL     H139471   0.226   3.176   6.307  1.5101  0.7778  3.6296
 4424SOL     H239472   0.341   3.225   6.221  0.0893 -1.4941  0.2862
 4425SOL    OH239473   2.637   2.742   1.920 -0.6767  0.1708 -0.4746
 4425SOL     H139474   2.637   2.649   1.945  1.8693  0.3644  0.2867
 4425SOL     H239475   2.657   2.741   1.827 -2.2118 -0.0914 -0.8293
 4426SOL    OH239476   4.311   7.217   1.792  0.0950  0.5441  0.6145
 4426SOL     H139477   4.271   7.239   1.876 -0.6385  0.8804  0.1787
 4426SOL     H239478   4.238   7.186   1.737  0.3808  1.3891 -0.2595
 4427SOL    OH239479   3.828   1.461   7.623 -0.3703  0.0043  0.0228
 4427SOL     H139480   3.843   1.527   7.555  0.3880  0.7566  0.9163
 4427SOL     H239481   3.878   1.385   7.594  1.9228  1.1245  0.9252
 4428SOL    OH239482   1.227   7.027   7.444  0.1835 -0.0505 -0.0525
 4428SOL     H139483   1.274   7.002   7.524  3.1239  2.3119 -0.9640
 4428SOL     H239484   1.153   7.079   7.475  1.5617  1.2360  1.1691
 4429SOL    OH239485   1.203   0.369   7.470  0.2673 -0.2281 -0.8276
 4429SOL     H139486   1.134   0.303   7.458 -0.0944  0.2760 -1.5752
 4429SOL     H239487   1.195   0.395   7.561  0.7842 -1.6357 -0.3744
 4430SOL    OH239488   1.800   5.082   0.388 -0.0456  0.8862 -0.1127
 4430SOL     H139489   1.888   5.053   0.364 -1.0372  0.4610 -3.4233
 4430SOL     H239490   1.788   5.050   0.477  2.3273 -0.9922 -0.4239
 4431SOL    OH239491   3.743   6.471   0.918  0.1034  0.4379 -0.3265
 4431SOL     H139492   3.783   6.509   0.839  2.1134  1.9356  1.3710
 4431SOL     H239493   3.681   6.538   0.947  0.4293  0.5129  0.1886
 4432SOL    OH239494   4.768   1.150   1.991 -0.5461 -0.2914  0.4432
 4432SOL     H139495   4.810   1.133   2.075  1.3594  0.4024 -0.3572
 4432SOL     H239496   4.688   1.097   1.994 -0.5121 -0.2706  2.6832
 4433SOL    OH239497   1.527   4.382   1.642  0.4185  0.2410  0.4915
 4433SOL     H139498   1.455   4.408   1.700  0.2133 -2.5191  1.5581
 4433SOL     H239499   1.535   4.454   1.579 -0.6789  2.3932  2.7267
 4434SOL    OH239500   4.263   5.344   7.988  0.3018  0.0951  0.6081
 4434SOL     H139501   4.283   5.332   8.081 -2.9134  1.5931  1.5535
 4434SOL     H239502   4.174   5.309   7.978 -0.3188  2.1459 -1.3900
 4435SOL    OH239503   0.534   6.451   2.084  0.2737 -0.2154  0.0361
 4435SOL     H139504   0.530   6.359   2.059  0.5594 -0.5835  1.3159
 4435SOL     H239505   0.477   6.459   2.160 -0.0344  0.7370 -0.2814
 4436SOL    OH239506   1.989   3.003   6.985 -0.3021 -0.1562 -0.4143
 4436SOL     H139507   2.054   2.933   6.979 -0.1344 -0.2372  1.8462
 4436SOL     H239508   2.027   3.066   7.046 -2.5338 -0.4939  1.4159
 4437SOL    OH239509   6.723   3.581   7.355  0.5493  0.3691  0.4869
 4437SOL     H139510   6.651   3.549   7.409  0.3346 -0.6599 -0.3884
 4437SOL     H239511   6.802   3.563   7.406  0.3709 -0.8843  0.3169
 4438SOL    OH239512   0.352   5.473   8.090 -0.6004  0.4919  0.0988
 4438SOL     H139513   0.428   5.469   8.031 -0.1400  0.7311  0.6681
 4438SOL     H239514   0.302   5.394   8.069  0.5706 -0.4515  0.7162
 4439SOL    OH239515   5.419   7.818   7.501 -0.5253  0.0481  0.9929
 4439SOL     H139516   5.482   7.875   7.545  1.0594  0.0414 -1.1620
 4439SOL     H239517   5.357   7.879   7.460  0.0445  0.1581  0.2964
 4440SOL    OH239518   5.351   2.253   0.445  0.4748  0.1788 -0.2280
 4440SOL     H139519   5.445   2.239   0.428  0.6597 -0.7263  1.5159
 4440SOL     H239520   5.344   2.347   0.462  1.4176 -0.0986  1.7839
 4441SOL    OH239521   6.806   7.478   0.010  0.5832 -0.2271 -0.1064
 4441SOL     H139522   6.823   7.384   0.016  0.7873 -0.1152  1.2997
 4441SOL     H239523   6.748   7.497   0.084 -1.2334  0.3774 -1.6548
 4442SOL    OH239524   0.512   4.314   1.221  0.2808  0.1830 -0.8840
 4442SOL     H139525   0.455   4.248   1.261 -1.3001  1.1314 -1.4902
 4442SOL     H239526   0.545   4.273   1.141  1.2229 -0.7163 -0.0387
 4443SOL    OH239527   3.693   2.962   6.936 -0.0883 -0.2474 -0.2575
 4443SOL     H139528   3.769   2.985   6.882 -0.7467  0.5130 -0.8892
 4443SOL     H239529   3.618   2.974   6.878 -0.6586 -1.4542  0.2224
 4444SOL    OH239530   4.223   4.790   0.663 -0.1100 -1.0406  0.2454
 4444SOL     H139531   4.193   4.852   0.597  0.9347  0.6259  1.3152
 4444SOL     H239532   4.246   4.711   0.613  0.7934  0.2288 -1.3957
 4445SOL    OH239533   5.590   5.044   1.233 -0.0109 -0.4925  0.5256
 4445SOL     H139534   5.642   5.074   1.307  0.6626  2.3061 -1.0074
 4445SOL     H239535   5.641   4.972   1.194  0.6710 -0.5239  1.4717
 4446SOL    OH239536   7.729   1.891   7.453 -0.2189  0.3951  0.1650
 4446SOL     H139537   7.741   1.796   7.460 -0.1863  0.4626  1.0490
 4446SOL     H239538   7.761   1.926   7.536 -1.1662  1.0915  0.2474
 4447SOL    OH239539   1.828   6.243   7.345  0.2565  0.0977  0.0953
 4447SOL     H139540   1.765   6.197   7.289  0.1521  0.4126 -0.0503
 4447SOL     H239541   1.901   6.265   7.286  0.7039 -0.6594  0.3639
 4448SOL    OH239542   4.060   5.462   1.827  0.2629  0.6509 -0.0759
 4448SOL     H139543   4.059   5.368   1.844 -0.0112  0.7446  0.4459
 4448SOL     H239544   4.073   5.502   1.914  2.5387  1.0334 -0.5636
 4449SOL    OH239545   1.198   7.557   7.638  0.8805  0.0646  0.1218
 4449SOL     H139546   1.145   7.603   7.572 -0.5345 -0.8810  0.5834
 4449SOL     H239547   1.232   7.627   7.694 -2.0583  0.5290  1.4211
 4450SOL    OH239548   3.068   0.898   0.770  0.2531  0.0585 -0.4311
 4450SOL     H139549   2.991   0.911   0.714 -1.3176 -0.2587  1.6113
 4450SOL     H239550   3.083   0.984   0.810  0.9138  0.1006 -0.7682
 4451SOL    OH239551   2.009   1.596   0.348  0.3295 -0.4147 -0.4454
 4451SOL     H139552   2.088   1.551   0.320 -0.4915 -0.9117 -2.0351
 4451SOL     H239553   1.991   1.660   0.280 -1.6178 -1.5376 -1.0368
 4452SOL    OH239554   3.011   1.696   1.056  0.1835 -0.4637  0.3108
 4452SOL     H139555   3.073   1.767   1.070  0.4986 -0.6069 -0.3551
 4452SOL     H239556   2.926   1.740   1.048  0.3538 -0.1802  0.0788
 4453SOL    OH239557   7.669   0.795   0.740 -0.0227 -0.2167  0.1329
 4453SOL     H139558   7.621   0.718   0.709 -0.1126 -0.0200 -0.2104
 4453SOL     H239559   7.760   0.777   0.719  0.0600 -0.5860  0.7757
 4454SOL    OH239560   6.647   4.939   7.656 -0.4053  0.0871 -0.3395
 4454SOL     H139561   6.606   4.954   7.741 -0.5268  3.1477 -0.8928
 4454SOL     H239562   6.582   4.971   7.593  1.0026  0.8233 -1.4266
 4455SOL    OH239563   3.556   6.630   7.767  0.1879  0.2926 -0.3454
 4455SOL     H139564   3.615   6.557   7.784  2.0155  2.0595  1.2814
 4455SOL     H239565   3.548   6.633   7.672  1.3342 -1.0679 -0.5050
 4456SOL    OH239566   0.294   6.634   1.301 -0.6954 -0.2737 -0.6601
 4456SOL     H139567   0.240   6.555   1.307  0.2836 -1.1722 -2.9045
 4456SOL     H239568   0.235   6.701   1.266 -0.6060 -1.0343 -2.3179
 4457SOL    OH239569   6.421   3.424   7.808  0.1894 -0.5522  0.2937
 4457SOL     H139570   6.480   3.435   7.882 -0.1757  2.2152  0.2276
 4457SOL     H239571   6.469   3.367   7.747  1.9764  0.0869  1.0722
 4458SOL    OH239572   6.624   7.882   5.987  0.4505  0.0762 -0.8394
 4458SOL     H139573   6.600   7.961   6.035 -2.1851 -0.7253 -0.8115
 4458SOL     H239574   6.699   7.909   5.934  0.2004  2.3210 -0.1060
 4459SOL    OH239575   3.141   5.580   1.471  0.5779 -0.0737 -0.2211
 4459SOL     H139576   3.187   5.515   1.419  1.8565  1.1294 -0.6288
 4459SOL     H239577   3.157   5.663   1.426 -0.6179  0.5980  0.5517
 4460SOL    OH239578   6.297   5.542   1.893 -0.0920 -0.3897 -0.2824
 4460SOL     H139579   6.204   5.560   1.886 -0.1030 -0.3099  0.0660
 4460SOL     H239580   6.320   5.569   1.982  0.3071 -0.1919 -0.4433
 4461SOL    OH239581   2.981   1.904   1.491  0.0513 -0.1003  0.4529
 4461SOL     H139582   2.999   1.979   1.434 -0.6988  0.7604  1.3328
 4461SOL     H239583   2.991   1.828   1.434 -0.0708  0.7171 -0.6795
 4462SOL    OH239584   0.277   6.676   2.384 -0.0013  0.4927  0.0685
 4462SOL     H139585   0.242   6.619   2.315  2.0821 -1.4134  0.5523
 4462SOL     H239586   0.341   6.732   2.339  2.0131 -1.3552  0.5607
 4463SOL    OH239587   1.536   6.015   6.898  0.4999  0.1107  0.3127
 4463SOL     H139588   1.466   6.067   6.938  2.2894  1.5476  1.6994
 4463SOL     H239589   1.491   5.945   6.852 -1.9646  2.1532 -0.5208
 4464SOL    OH239590   4.719   2.097   6.442 -0.1505  0.1851 -0.3760
 4464SOL     H139591   4.761   2.024   6.396 -0.7876 -2.0400  2.4682
 4464SOL     H239592   4.792   2.153   6.469  0.3404  0.6828 -2.5974
 4465SOL    OH239593   7.013   2.584   7.502  0.6336 -0.5243  0.4086
 4465SOL     H139594   7.081   2.542   7.449  0.4556  0.2359 -0.4424
 4465SOL     H239595   6.960   2.511   7.535  1.1493 -1.0486  0.0855
 4466SOL    OH239596   4.572   3.328   0.983 -0.1360  0.5295  0.1270
 4466SOL     H139597   4.620   3.260   0.936  0.0276  0.8792 -0.2198
 4466SOL     H239598   4.553   3.290   1.069 -0.3007 -0.0613 -0.1668
 4467SOL    OH239599   2.169   6.292   1.546  0.5321  0.2116  0.2928
 4467SOL     H139600   2.264   6.298   1.535  0.3581 -1.2136 -2.2841
 4467SOL     H239601   2.133   6.329   1.466 -1.0298 -1.7937  0.0195
 4468SOL    OH239602   3.751   0.273   1.444 -0.4026 -0.2151  0.0225
 4468SOL     H139603   3.817   0.324   1.491  0.2408  0.7726 -1.8841
 4468SOL     H239604   3.679   0.263   1.506  0.4184  1.0712  1.2054
 4469SOL    OH239605   5.672   4.326   1.678  0.3304 -0.1403 -0.0647
 4469SOL     H139606   5.630   4.312   1.762 -1.3598 -0.6607 -0.9792
 4469SOL     H239607   5.606   4.301   1.613  1.2598  1.1604 -1.5543
 4470SOL    OH239608   7.306   7.629   1.807  0.1971  0.0234 -0.3507
 4470SOL     H139609   7.305   7.557   1.744 -0.0392 -0.2166 -0.0742
 4470SOL     H239610   7.224   7.676   1.791  0.4893  0.3976 -0.7277
 4471SOL    OH239611   6.907   5.842   7.948 -0.1239  0.0530 -0.7308
 4471SOL     H139612   6.993   5.811   7.922 -0.9039 -2.6739 -0.2089
 4471SOL     H239613   6.851   5.824   7.873 -1.4415 -3.7468  1.0118
 4472SOL    OH239614   1.346   1.416   7.174 -0.5377 -0.2560  0.3300
 4472SOL     H139615   1.285   1.486   7.199 -2.2979 -1.5336 -0.2810
 4472SOL     H239616   1.305   1.373   7.099  1.9195 -0.1413 -1.1251
 4473SOL    OH239617   6.118   5.163   1.716  0.1570 -0.0974 -0.0881
 4473SOL     H139618   6.029   5.166   1.752  0.2945  0.1563  0.2368
 4473SOL     H239619   6.127   5.075   1.682  0.2767 -0.5882  1.1733
 4474SOL    OH239620   2.248   5.879   6.095 -0.2779 -0.2109  0.0125
 4474SOL     H139621   2.297   5.916   6.021 -0.2706 -1.9503 -0.8768
 4474SOL     H239622   2.157   5.880   6.066 -0.2814 -0.8529 -0.0133
 4475SOL    OH239623   7.202   5.575   6.865 -0.3621 -0.2602  0.7597
 4475SOL     H139624   7.230   5.483   6.867 -2.1702 -0.8557  0.3400
 4475SOL     H239625   7.256   5.618   6.931  0.9658 -1.4936  0.5152
 4476SOL    OH239626   7.615   3.721   7.077 -0.0101 -0.2358  0.4977
 4476SOL     H139627   7.634   3.670   6.999  0.0568 -0.8235  0.8947
 4476SOL     H239628   7.519   3.727   7.080  0.0027  0.2457  0.0837
 4477SOL    OH239629   1.697   3.684   2.282  0.0890 -0.7075 -0.5169
 4477SOL     H139630   1.724   3.652   2.368  3.8864 -1.0148 -1.7410
 4477SOL     H239631   1.715   3.611   2.222  0.4347  0.5704 -2.0084
 4478SOL    OH239632   6.388   5.182   2.594 -0.0273  0.7362  0.2981
 4478SOL     H139633   6.457   5.230   2.549 -0.9584  4.2045  2.3732
 4478SOL     H239634   6.432   5.142   2.669  0.1129  1.2262  0.4770
 4479SOL    OH239635   1.037   2.686   0.110 -1.1832  0.4392  0.0032
 4479SOL     H139636   0.978   2.631   0.058 -0.1325 -0.2551 -0.4697
 4479SOL     H239637   1.032   2.650   0.198 -0.5156 -0.3998 -0.3010
 4480SOL    OH239638   5.686   4.242   0.378 -0.1400  0.0678 -0.1879
 4480SOL     H139639   5.752   4.173   0.374  0.2537  0.4405 -0.0913
 4480SOL     H239640   5.703   4.296   0.301  0.9383  1.3223  0.9227
 4481SOL    OH239641   0.385   2.904   1.893  0.4191  0.0806  0.2023
 4481SOL     H139642   0.330   2.829   1.917  1.4648 -0.3393  1.3455
 4481SOL     H239643   0.436   2.874   1.819  1.0249 -0.4386  0.8242
 4482SOL    OH239644   0.515   4.444   8.102  0.4421 -0.6286 -0.4976
 4482SOL     H139645   0.578   4.405   8.163  0.0124  0.1421  0.4571
 4482SOL     H239646   0.498   4.531   8.138  0.7920  0.1537 -2.1612
 4483SOL    OH239647   4.937   2.901   7.461 -1.1696  0.0143 -0.1132
 4483SOL     H139648   5.033   2.899   7.458 -1.2123 -2.2765 -1.1978
 4483SOL     H239649   4.916   2.918   7.553  0.3000 -3.1596  0.9086
 4484SOL    OH239650   5.619   6.928   7.625  0.3980 -0.5133  0.0810
 4484SOL     H139651   5.607   6.834   7.641 -2.0009 -0.2028  0.1835
 4484SOL     H239652   5.565   6.946   7.549  0.0540  1.0041  0.6779
 4485SOL    OH239653   4.290   2.116   0.191  0.0323  0.2221  0.7476
 4485SOL     H139654   4.289   2.168   0.110  0.8886 -0.6939  0.1330
 4485SOL     H239655   4.198   2.096   0.208  0.0055 -1.7298 -1.4291
 4486SOL    OH239656   7.548   4.295   1.541 -0.2029 -0.2624  0.1228
 4486SOL     H139657   7.505   4.377   1.563 -1.8858 -1.4283  1.2790
 4486SOL     H239658   7.499   4.260   1.467 -0.4509 -0.9495  0.6002
 4487SOL    OH239659   2.997   3.360   0.761  0.2147 -0.5285 -0.9024
 4487SOL     H139660   2.908   3.384   0.787  1.1917 -0.0680  2.1038
 4487SOL     H239661   3.002   3.266   0.777  0.4112 -0.4853 -0.7200
 4488SOL    OH239662   7.558   1.076   8.026  0.0998 -0.3911  0.0369
 4488SOL     H139663   7.494   1.061   7.956  0.5469  0.3984 -0.5583
 4488SOL     H239664   7.563   0.993   8.072 -0.8783 -0.6540 -0.3143
 4489SOL    OH239665   2.692   5.647   0.527  0.0213  0.9365 -0.7841
 4489SOL     H139666   2.740   5.565   0.516  0.9921  1.3208  0.5071
 4489SOL     H239667   2.740   5.711   0.475  0.3755  1.1216 -0.2247
 4490SOL    OH239668   6.711   0.524   1.597  0.3751  0.2443  0.2167
 4490SOL     H139669   6.632   0.566   1.630  1.0403  1.0807  0.7799
 4490SOL     H239670   6.714   0.549   1.504 -0.3755 -0.3513  0.0309
 4491SOL    OH239671   6.868   1.386   0.085  0.2623  0.2362  0.6024
 4491SOL     H139672   6.910   1.309   0.123 -1.9380 -2.5820 -2.3457
 4491SOL     H239673   6.937   1.427   0.032  0.2089 -2.7246 -1.9283
 4492SOL    OH239674   6.844   6.180   7.002  0.2375 -0.3832  0.1645
 4492SOL     H139675   6.806   6.094   6.979  0.7690 -0.2991 -1.0645
 4492SOL     H239676   6.848   6.227   6.919  2.7559 -0.2739  0.3326
 4493SOL    OH239677   5.657   6.697   2.130  0.0484 -0.2631  0.6141
 4493SOL     H139678   5.628   6.612   2.163 -0.8788 -0.2108 -0.0664
 4493SOL     H239679   5.669   6.750   2.209 -0.8750 -0.5426  0.9517
 4494SOL    OH239680   6.571   2.698   6.788  0.2550 -0.5811  0.3940
 4494SOL     H139681   6.641   2.762   6.772  0.3111 -0.4038  1.3347
 4494SOL     H239682   6.612   2.630   6.841  0.2041 -1.4310 -0.6391
 4495SOL    OH239683   2.241   0.442   5.704 -0.6287 -0.1744  0.5059
 4495SOL     H139684   2.202   0.524   5.675 -0.9412  0.6589  3.1793
 4495SOL     H239685   2.166   0.390   5.734 -0.5827 -1.9807 -2.3090
 4496SOL    OH239686   4.441   0.277   0.555  0.3411  0.7038  0.0155
 4496SOL     H139687   4.420   0.184   0.555 -0.5104  0.8852  1.1120
 4496SOL     H239688   4.504   0.288   0.485  0.2525 -0.6619 -0.2765
 4497SOL    OH239689   6.455   2.345   0.135  0.1023 -0.4933  0.0704
 4497SOL     H139690   6.549   2.338   0.151  0.0043 -0.0209  0.8817
 4497SOL     H239691   6.435   2.271   0.078  0.8914 -0.8334  0.2252
 4498SOL    OH239692   2.812   1.850   1.162  0.0434 -0.5827  0.1079
 4498SOL     H139693   2.754   1.845   1.238  0.3819 -2.4938  0.2742
 4498SOL     H239694   2.758   1.817   1.090  1.0711 -2.9412  0.3778
 4499SOL    OH239695   2.498   7.883  -0.015  0.2791  0.1283 -0.1218
 4499SOL     H139696   2.412   7.854  -0.044  0.2836  1.5287 -1.6034
 4499SOL     H239697   2.488   7.896   0.079 -0.1907 -2.8964  0.2922
 4500SOL    OH239698   5.192   1.498   0.887 -0.4624  0.5430  0.1734
 4500SOL     H139699   5.132   1.513   0.960  0.8243 -1.0198  1.5668
 4500SOL     H239700   5.268   1.457   0.926 -0.3484 -1.6700 -2.2699
 4501SOL    OH239701   3.128   7.378   6.214 -0.0291 -0.0701 -0.0352
 4501SOL     H139702   3.104   7.428   6.135 -1.4975  0.1144  0.5172
 4501SOL     H239703   3.106   7.436   6.287  2.3839  0.2108  0.5094
 4502SOL    OH239704   3.888   5.280   8.248 -0.3456  0.6742  0.0509
 4502SOL     H139705   3.824   5.273   8.178 -1.8121  0.4722  1.3782
 4502SOL     H239706   3.957   5.335   8.212 -0.1700 -0.9324 -2.1952
 4503SOL    OH239707   1.367   3.580   7.923 -0.3113  0.5158 -0.3151
 4503SOL     H139708   1.436   3.524   7.886 -1.3820  0.5103 -2.3682
 4503SOL     H239709   1.320   3.613   7.847 -0.6748  2.9769  0.9451
 4504SOL    OH239710   3.178   2.253   0.638 -0.3988  0.1566  0.1540
 4504SOL     H139711   3.259   2.209   0.665 -0.5488  0.4290  1.0594
 4504SOL     H239712   3.163   2.222   0.549  0.8801  0.3524 -0.1430
 4505SOL    OH239713   4.421   5.803   1.706 -0.2947 -0.0897  0.2615
 4505SOL     H139714   4.466   5.845   1.633 -1.0214 -0.0579 -0.1658
 4505SOL     H239715   4.336   5.846   1.711 -0.0567  0.2736  1.4587
 4506SOL    OH239716   2.564   5.866   1.139 -0.6700  0.1643  0.4135
 4506SOL     H139717   2.590   5.920   1.065 -0.7389 -0.4218 -0.0511
 4506SOL     H239718   2.487   5.818   1.107 -0.8661  0.1176  0.9581
 4507SOL    OH239719   7.438   0.210   0.719  0.6523  0.4684 -0.2289
 4507SOL     H139720   7.442   0.115   0.724 -2.9210  0.0573 -3.1371
 4507SOL     H239721   7.461   0.231   0.628 -0.6867  2.1951 -0.2114
 4508SOL    OH239722   0.234   0.517   6.947 -0.4623  0.2006 -0.1062
 4508SOL     H139723   0.290   0.445   6.917 -1.4711 -0.9429  0.6939
 4508SOL     H239724   0.293   0.573   6.998  0.2037 -0.3809 -0.2204
 4509SOL    OH239725   1.234   6.107   0.438 -0.1057  0.5266  0.0037
 4509SOL     H139726   1.247   6.017   0.468  1.3679  0.7517  0.0626
 4509SOL     H239727   1.321   6.137   0.412 -0.8660  1.3388 -1.7216
 4510SOL    OH239728   1.217   6.227   6.159  0.1547 -0.8869  0.1416
 4510SOL     H139729   1.161   6.270   6.093  0.5374 -0.2850  0.2051
 4510SOL     H239730   1.155   6.189   6.221 -0.1969 -0.5285  0.0175
 4511SOL    OH239731   7.158   4.257   2.139  0.2322 -0.3170 -0.2634
 4511SOL     H139732   7.214   4.252   2.062 -1.6267 -1.2986 -1.6014
 4511SOL     H239733   7.164   4.348   2.168 -1.1174  0.7535 -3.1951
 4512SOL    OH239734   5.894   5.495   1.241  0.0972 -0.7188 -0.1069
 4512SOL     H139735   5.826   5.552   1.205  1.6406  1.3616  0.1554
 4512SOL     H239736   5.904   5.426   1.176 -0.3909  0.4316 -1.4370
 4513SOL    OH239737   2.880   2.088   0.118  0.3431 -0.0639 -0.1500
 4513SOL     H139738   2.798   2.104   0.164  0.6186  0.1558  0.2688
 4513SOL     H239739   2.871   2.137   0.036  0.4370  0.7366  0.3103
 4514SOL    OH239740   5.225   4.823   2.964 -0.2273 -0.3164 -0.4395
 4514SOL     H139741   5.146   4.816   2.911 -1.6194 -1.1876  1.6933
 4514SOL     H239742   5.228   4.915   2.991 -1.7173 -0.7398  1.2443
 4515SOL    OH239743   4.311   6.076   0.958  0.2354 -0.3067  0.2002
 4515SOL     H139744   4.256   6.150   0.936  1.3597  0.4851  0.0101
 4515SOL     H239745   4.394   6.115   0.985  0.9959 -1.4958 -0.3625
 4516SOL    OH239746   3.873   4.787   2.108  0.2141  0.3930 -0.5286
 4516SOL     H139747   3.916   4.840   2.174  0.3816 -0.5108  0.1032
 4516SOL     H239748   3.944   4.761   2.049  1.2877 -3.9306  2.3962
 4517SOL    OH239749   0.307   1.582   1.379 -0.3545  0.1253  0.3616
 4517SOL     H139750   0.257   1.610   1.302  0.3244  0.3515  0.0015
 4517SOL     H239751   0.290   1.488   1.385 -0.7190  0.1781  0.1602
 4518SOL    OH239752   3.950   2.377   8.312 -0.2620 -0.5135  0.5285
 4518SOL     H139753   3.961   2.297   8.261  2.6622  0.5063 -0.5498
 4518SOL     H239754   3.957   2.447   8.248 -0.4999  0.6705  1.7834
 4519SOL    OH239755   5.329   4.601   0.174 -0.1836  0.3337 -0.2528
 4519SOL     H139756   5.312   4.591   0.267  0.7820 -0.9444 -0.1912
 4519SOL     H239757   5.314   4.514   0.137 -0.3705  0.7799 -1.2667
 4520SOL    OH239758   2.094   7.249   7.804 -0.5304  0.0193  0.4057
 4520SOL     H139759   2.025   7.227   7.868  0.9718 -0.7197  1.7967
 4520SOL     H239760   2.104   7.170   7.752  0.6806 -0.5885  1.5347
 4521SOL    OH239761   3.305   2.891   0.093  0.1590  0.7387 -0.2345
 4521SOL     H139762   3.281   2.909   0.183  3.5515  2.1256  0.4844
 4521SOL     H239763   3.400   2.879   0.095  0.4882  1.9969 -3.7957
 4522SOL    OH239764   5.418   6.866   0.339  0.3306 -0.2953 -0.2346
 4522SOL     H139765   5.499   6.847   0.386  0.0393  0.5351  0.6189
 4522SOL     H239766   5.448   6.903   0.255  0.8431 -1.4816 -0.5900
 4523SOL    OH239767   5.192   4.910   0.085  0.0352 -0.8644  0.8096
 4523SOL     H139768   5.178   4.827   0.039 -0.3496  0.3722 -1.3873
 4523SOL     H239769   5.205   4.974   0.015 -1.2809  1.2188  2.4162
 4524SOL    OH239770   4.746   2.778   6.674 -0.2353  0.1575 -0.1744
 4524SOL     H139771   4.751   2.854   6.732 -0.9370  0.1736 -0.1331
 4524SOL     H239772   4.653   2.771   6.652 -0.2624 -1.0624  0.3126
 4525SOL    OH239773   6.649   6.891   6.146 -0.5816 -0.4307  0.2856
 4525SOL     H139774   6.717   6.838   6.102 -1.1128 -0.5718 -0.3838
 4525SOL     H239775   6.646   6.857   6.235  0.8805  0.2059  0.5834
 4526SOL    OH239776   3.182   3.536   0.901 -0.5926  0.5752 -0.7681
 4526SOL     H139777   3.118   3.566   0.965  1.1864 -1.2991  2.0224
 4526SOL     H239778   3.136   3.469   0.850 -1.1247 -0.1372  0.6291
 4527SOL    OH239779   6.830   7.877   5.736 -0.0916 -0.8360 -0.2979
 4527SOL     H139780   6.877   7.844   5.659  0.7666  0.5741 -0.3902
 4527SOL     H239781   6.824   7.972   5.722  2.8546 -0.0968  2.8390
 4528SOL    OH239782   7.364   5.273   0.126  0.3637  0.3363  0.2858
 4528SOL     H139783   7.398   5.193   0.089  0.4715  0.6143 -0.2215
 4528SOL     H239784   7.388   5.269   0.219 -1.1908 -1.0554  0.6532
 4529SOL    OH239785   7.834   7.519   7.568  0.2754  0.1555 -0.1500
 4529SOL     H139786   7.891   7.472   7.629  0.8150  0.3122 -0.5280
 4529SOL     H239787   7.780   7.450   7.527 -0.1166  0.0595  0.5327
 4530SOL    OH239788   0.850   7.192   1.156 -0.2900 -0.0467 -0.5051
 4530SOL     H139789   0.819   7.103   1.138  0.0029 -0.7343  2.2484
 4530SOL     H239790   0.924   7.181   1.215 -0.3968  2.0467  0.0606
 4531SOL    OH239791   3.325   5.458   1.298 -0.2467  0.0771 -0.0884
 4531SOL     H139792   3.376   5.514   1.240  2.0752 -1.7670  0.0698
 4531SOL     H239793   3.375   5.455   1.379 -0.7570 -1.5104  0.1969
 4532SOL    OH239794   2.221   4.660   6.536 -0.4650  0.2524 -0.0061
 4532SOL     H139795   2.259   4.703   6.613  2.4372 -0.4754 -0.9929
 4532SOL     H239796   2.225   4.726   6.467 -2.4368  0.6755  0.2624
 4533SOL    OH239797   1.617   4.139   1.272  0.0758  0.4345 -0.8327
 4533SOL     H139798   1.615   4.230   1.244  3.0474  0.4837 -1.0021
 4533SOL     H239799   1.653   4.141   1.361  0.8236 -0.6173 -1.0946
 4534SOL    OH239800   6.221   1.349   1.821  0.1495  0.0007 -0.8211
 4534SOL     H139801   6.210   1.272   1.876  1.3396  0.2178 -0.2586
 4534SOL     H239802   6.255   1.416   1.880 -1.3105  1.1134 -1.1891
 4535SOL    OH239803   1.877   3.775   7.308  0.8679  0.1629  0.1730
 4535SOL     H139804   1.809   3.708   7.316 -0.8628  1.9886  1.1025
 4535SOL     H239805   1.916   3.780   7.395 -0.5243  1.9124  0.7144
 4536SOL    OH239806   6.534   1.540   1.771 -0.1137  0.1537 -0.4311
 4536SOL     H139807   6.621   1.581   1.776  0.1339 -0.3673 -0.3615
 4536SOL     H239808   6.546   1.467   1.710 -0.5353  0.1521 -0.5114
 4537SOL    OH239809   0.736   3.312   8.238  0.3962  0.0545  0.4042
 4537SOL     H139810   0.759   3.387   8.183 -1.6802 -0.1979 -0.8848
 4537SOL     H239811   0.736   3.346   8.327  1.1028  1.1637 -0.0064
 4538SOL    OH239812   1.030   2.229   7.849  0.1030 -0.3347  0.2577
 4538SOL     H139813   1.021   2.235   7.944  0.7589  0.2978  0.2880
 4538SOL     H239814   1.075   2.310   7.825 -3.3580  1.2781 -1.0372
 4539SOL    OH239815   4.884   0.995   8.262 -0.3873 -0.3055 -0.1477
 4539SOL     H139816   4.833   1.069   8.294 -0.4879 -0.3596 -0.1810
 4539SOL     H239817   4.860   0.988   8.169  0.8892  0.6666 -0.5616
 4540SOL    OH239818   7.327   6.364   6.920 -0.3043  0.0049 -0.1553
 4540SOL     H139819   7.273   6.295   6.881  0.1584  1.4329 -3.4274
 4540SOL     H239820   7.267   6.412   6.977 -1.6296 -0.5666 -1.0512
 4541SOL    OH239821   2.648   6.024   2.253  0.5052  0.1897 -0.2699
 4541SOL     H139822   2.592   6.099   2.276  1.3045  1.1621 -1.4123
 4541SOL     H239823   2.604   5.984   2.178 -0.0629 -0.6629  0.5069
 4542SOL    OH239824   7.320   3.570   0.283 -0.4542  0.2829  0.4310
 4542SOL     H139825   7.377   3.605   0.215 -0.3831 -1.3910 -0.3978
 4542SOL     H239826   7.252   3.636   0.295  0.5029  1.3549 -0.0344
 4543SOL    OH239827   4.655   0.121   1.283 -0.4170  0.4712  0.0294
 4543SOL     H139828   4.658   0.033   1.322 -0.2629  0.4086 -0.1217
 4543SOL     H239829   4.623   0.107   1.194  2.2322  0.2177 -0.9507
 4544SOL    OH239830   1.229   1.275   1.405 -0.1183 -0.3020 -0.5316
 4544SOL     H139831   1.159   1.320   1.451  0.4178 -2.0443  2.0756
 4544SOL     H239832   1.183   1.217   1.344 -0.8669  0.6010 -0.8463
 4545SOL    OH239833   4.428   3.421   0.642 -0.3378  0.4911 -0.4066
 4545SOL     H139834   4.481   3.497   0.619 -0.4268  1.1262  1.4350
 4545SOL     H239835   4.338   3.449   0.623 -0.2059  0.1003 -1.6754
 4546SOL    OH239836   2.494   4.634   0.844  0.2211 -0.0550  0.1382
 4546SOL     H139837   2.513   4.574   0.916 -0.3813 -1.5242 -0.8948
 4546SOL     H239838   2.555   4.707   0.856  2.6309 -2.0018  0.0427
 4547SOL    OH239839   7.658   1.983   0.699 -0.2277 -0.5132 -0.2041
 4547SOL     H139840   7.708   1.902   0.703  1.1936  0.4014  1.2070
 4547SOL     H239841   7.612   1.987   0.783  0.8786  0.8625  0.3495
 4548SOL    OH239842   2.654   5.869   5.478  0.0372 -0.0212  0.0119
 4548SOL     H139843   2.630   5.853   5.569 -1.8175 -0.3299 -0.5177
 4548SOL     H239844   2.572   5.890   5.434  1.0014  0.7469 -1.4682
 4549SOL    OH239845   2.377   1.425   0.872 -0.0155  0.6084  0.2607
 4549SOL     H139846   2.301   1.471   0.908 -0.3461 -0.0497  0.3966
 4549SOL     H239847   2.394   1.354   0.933  0.8580  0.8877  0.3598
 4550SOL    OH239848   4.761   2.443   6.512  0.1784  0.2028  0.3785
 4550SOL     H139849   4.819   2.382   6.467 -0.1579  0.1122  0.0672
 4550SOL     H239850   4.815   2.481   6.581  1.5544  2.4194 -1.8236
 4551SOL    OH239851   2.273   6.870   1.534  0.3226 -0.0788  0.2964
 4551SOL     H139852   2.349   6.854   1.478  0.5139  0.5198  0.3861
 4551SOL     H239853   2.203   6.895   1.474  1.2417  3.2421  0.5196
 4552SOL    OH239854   3.978   5.729   6.676  0.6642  0.2610 -0.0877
 4552SOL     H139855   3.891   5.768   6.665 -0.3441 -2.1325 -1.0068
 4552SOL     H239856   4.036   5.788   6.627 -0.8938  0.3338 -1.9529
 4553SOL    OH239857   2.016   0.869   7.605  0.4931 -0.3774  0.5301
 4553SOL     H139858   2.087   0.821   7.562  0.5899  1.5588 -1.6272
 4553SOL     H239859   2.026   0.850   7.698  4.2374  0.3117  0.3505
 4554SOL    OH239860   6.575   2.685   0.155 -0.0726  0.2629  0.2088
 4554SOL     H139861   6.534   2.665   0.239  0.2041  0.8776  0.4998
 4554SOL     H239862   6.615   2.771   0.168  0.1829  0.2545 -0.4780
 4555SOL    OH239863   7.090   1.610   6.912  0.2676  0.8319  0.4127
 4555SOL     H139864   7.076   1.621   7.006 -0.2371  0.5571  0.3706
 4555SOL     H239865   7.121   1.696   6.883 -3.5202  2.2064  0.1206
 4556SOL    OH239866   3.382   1.199   0.733  0.3676 -0.1214  0.4033
 4556SOL     H139867   3.323   1.264   0.694  1.0646 -0.3694 -1.1200
 4556SOL     H239868   3.352   1.115   0.698  0.0482 -0.5160  1.6323
 4557SOL    OH239869   1.958   1.210   2.733 -0.5784  0.1596 -0.1423
 4557SOL     H139870   1.909   1.276   2.684 -0.6776 -0.5070 -0.9530
 4557SOL     H239871   2.049   1.233   2.718 -0.6150  1.3122  1.2437
 4558SOL    OH239872   6.752   5.572   7.375 -0.0158  0.3670  0.1358
 4558SOL     H139873   6.672   5.624   7.367 -0.8551 -0.8818  0.2419
 4558SOL     H239874   6.821   5.628   7.340 -0.9425  1.4387 -0.0062
 4559SOL    OH239875   0.864   1.633   0.702  0.0411  0.0173 -0.5022
 4559SOL     H139876   0.804   1.559   0.689 -0.6435  0.8854 -2.4449
 4559SOL     H239877   0.943   1.607   0.654 -0.7320  1.1420 -2.4435
 4560SOL    OH239878   5.567   6.311   6.945 -0.0491 -0.3352  0.0322
 4560SOL     H139879   5.498   6.377   6.947 -0.1450 -0.4673  2.4381
 4560SOL     H239880   5.521   6.228   6.930 -0.3117 -0.3046  0.6729
 4561SOL    OH239881   2.033   5.410   2.168  0.0420 -0.0160  0.5588
 4561SOL     H139882   2.099   5.448   2.111 -0.3589  0.5131  0.4438
 4561SOL     H239883   2.064   5.321   2.185  0.1045 -0.2156 -0.5782
 4562SOL    OH239884   2.903   5.978   7.118  0.1729 -0.3722 -0.3289
 4562SOL     H139885   2.844   5.912   7.156 -0.2690  1.1472  1.7626
 4562SOL     H239886   2.991   5.945   7.136 -0.0396 -1.1682 -0.7333
 4563SOL    OH239887   0.334   0.840   7.428 -0.0664  0.5509  0.3630
 4563SOL     H139888   0.354   0.834   7.522 -0.3157 -1.3701  0.3161
 4563SOL     H239889   0.240   0.859   7.425 -0.0926  0.4469  0.5029
 4564SOL    OH239890   6.745   6.903   2.189  0.0099  0.3563  0.6021
 4564SOL     H139891   6.757   6.916   2.095  0.4644 -0.2816  0.5707
 4564SOL     H239892   6.809   6.963   2.229 -1.3176  1.8432  0.5403
 4565SOL    OH239893   5.340   4.998   7.330  0.2847  0.0024  0.0524
 4565SOL     H139894   5.286   4.972   7.404  0.1911 -0.0922 -0.0487
 4565SOL     H239895   5.428   4.970   7.354  0.4153  0.8127  0.5396
 4566SOL    OH239896   1.494   0.274   7.480  0.5928  0.0814 -0.4049
 4566SOL     H139897   1.402   0.281   7.502  0.4566 -1.6684 -0.3283
 4566SOL     H239898   1.515   0.357   7.437 -0.7033  0.9711  0.6352
 4567SOL    OH239899   4.914   0.137   1.370 -0.1657 -0.0576  0.1919
 4567SOL     H139900   4.950   0.107   1.287  2.1305 -0.8764  1.4254
 4567SOL     H239901   4.819   0.135   1.357  0.1607  0.4191 -2.5769
 4568SOL    OH239902   7.855   2.571   2.155  0.1993 -0.0793 -0.3342
 4568SOL     H139903   7.830   2.537   2.069  0.0384 -0.5628 -0.0967
 4568SOL     H239904   7.947   2.550   2.164 -0.1645 -1.4203  0.2713
 4569SOL    OH239905   4.629   7.391   1.144  0.2118  0.5359  0.0943
 4569SOL     H139906   4.589   7.314   1.103  3.9602 -0.4100 -1.9786
 4569SOL     H239907   4.652   7.361   1.233  0.2973 -0.2813 -0.1954
 4570SOL    OH239908   2.700   7.676   0.339  0.1017 -0.5391  0.2671
 4570SOL     H139909   2.738   7.608   0.395  1.8030 -0.5095 -0.8239
 4570SOL     H239910   2.663   7.629   0.265  1.3732 -0.2997 -0.5415
 4571SOL    OH239911   0.822   1.588   7.105  0.4189 -0.2664  0.0859
 4571SOL     H139912   0.811   1.527   7.177 -0.7138 -0.3040 -0.1068
 4571SOL     H239913   0.746   1.573   7.049  0.3670  0.9945 -0.1982
 4572SOL    OH239914   4.754   2.100   7.732 -1.1348  0.2981 -0.6845
 4572SOL     H139915   4.817   2.031   7.754 -0.5282  1.1818  0.4275
 4572SOL     H239916   4.789   2.179   7.775 -1.9601  1.2336 -1.7130
 4573SOL    OH239917   7.770   5.689   2.071 -0.4483 -0.3446 -0.2701
 4573SOL     H139918   7.779   5.595   2.083  0.4562 -0.2581 -0.1946
 4573SOL     H239919   7.858   5.723   2.087 -0.8015  0.5247 -0.1707
 4574SOL    OH239920   2.133   4.339   2.389 -0.1064 -0.2546 -0.6246
 4574SOL     H139921   2.127   4.244   2.403  1.7894 -0.4528 -0.9927
 4574SOL     H239922   2.226   4.355   2.374 -0.3086  1.7735  0.0934
 4575SOL    OH239923   1.496   7.458   1.343 -0.0034 -0.6810  0.3912
 4575SOL     H139924   1.478   7.523   1.276  1.7161  1.5034  1.9732
 4575SOL     H239925   1.413   7.413   1.356 -1.0258  0.6710 -1.2863
 4576SOL    OH239926   6.568   1.904   7.383 -0.1042  0.3970 -0.2537
 4576SOL     H139927   6.565   1.886   7.477  3.7284 -0.1105 -0.1785
 4576SOL     H239928   6.558   1.819   7.341  0.0923  0.3934 -0.2911
 4577SOL    OH239929   6.157   1.408   1.258  0.3484  0.0441 -0.5350
 4577SOL     H139930   6.140   1.360   1.177 -0.8516 -1.4107  0.5383
 4577SOL     H239931   6.160   1.340   1.326 -0.1742  1.3583  0.8353
 4578SOL    OH239932   6.909   2.816   7.578  0.3584  0.3811 -0.3379
 4578SOL     H139933   6.943   2.727   7.577  1.9883  0.9776 -0.3856
 4578SOL     H239934   6.985   2.871   7.556 -0.4395  1.8239  0.3924
 4579SOL    OH239935   4.539   4.069   6.866 -0.2690  0.2173  0.5173
 4579SOL     H139936   4.469   4.068   6.800  0.7776  2.1127 -0.6473
 4579SOL     H239937   4.562   3.977   6.878 -0.1222 -0.1320 -2.1502
 4580SOL    OH239938   2.514   3.318   7.730  0.1421  0.1086 -0.4497
 4580SOL     H139939   2.475   3.298   7.815  0.1830  1.1613 -0.1662
 4580SOL     H239940   2.464   3.265   7.668 -1.1039  0.6963  0.0209
 4581SOL    OH239941   3.683   4.271   0.235 -0.4574 -0.0694 -0.5983
 4581SOL     H139942   3.635   4.204   0.283  0.2696 -0.5796 -0.5714
 4581SOL     H239943   3.680   4.242   0.144 -0.8386  0.2933 -0.7055
 4582SOL    OH239944   3.981   1.608   8.077  0.3088 -0.7525 -0.4164
 4582SOL     H139945   4.020   1.553   8.009  1.8147 -0.2059 -0.0101
 4582SOL     H239946   4.017   1.695   8.062 -1.0145 -0.1641 -0.2257
 4583SOL    OH239947   6.964   0.951   8.033  0.4709 -0.0229  0.5089
 4583SOL     H139948   6.932   0.980   7.948  1.1379 -1.0245 -0.0944
 4583SOL     H239949   7.056   0.975   8.034  0.6490 -0.6858  0.6335
 4584SOL    OH239950   5.819   4.906   1.711  0.7163  0.3177  0.1626
 4584SOL     H139951   5.834   4.892   1.617  0.3413 -2.0984  0.4390
 4584SOL     H239952   5.792   4.998   1.717 -0.9308  0.0475 -2.3331
 4585SOL    OH239953   6.031   5.566   1.853  0.5414 -0.2933 -0.0063
 4585SOL     H139954   5.941   5.543   1.830  1.5578 -2.6053 -1.8940
 4585SOL     H239955   6.060   5.624   1.782  1.0235 -0.8163 -0.2467
 4586SOL    OH239956   0.326   2.818   0.192  0.0953  0.9218  0.4218
 4586SOL     H139957   0.315   2.884   0.260  0.9083  0.2695  1.2016
 4586SOL     H239958   0.239   2.780   0.182  0.3474 -0.2836  2.4798
 4587SOL    OH239959   5.445   3.365   8.037  0.5665 -0.1487  0.4340
 4587SOL     H139960   5.431   3.361   7.943 -1.7715  2.2571  0.6213
 4587SOL     H239961   5.517   3.427   8.048  0.6448 -0.2084  0.2498
 4588SOL    OH239962   1.253   4.568   1.659 -0.1416 -0.1060  0.4939
 4588SOL     H139963   1.307   4.647   1.646  0.6959 -0.7930 -0.2774
 4588SOL     H239964   1.194   4.591   1.731 -0.3983  1.4870 -0.1930
 4589SOL    OH239965   3.999   1.096   2.640  0.7941  0.0971  0.3512
 4589SOL     H139966   3.911   1.062   2.624  1.0047 -0.1291 -0.3375
 4589SOL     H239967   3.984   1.187   2.668  0.3327 -0.0078  0.4555
 4590SOL    OH239968   1.243   4.921   0.093  0.1880 -0.2854  0.3351
 4590SOL     H139969   1.289   4.901   0.011 -1.8943  1.2775 -1.2870
 4590SOL     H239970   1.170   4.858   0.095  0.8375 -1.0200  1.5507
 4591SOL    OH239971   4.875   0.998   1.621 -0.2114  0.2120 -0.0577
 4591SOL     H139972   4.957   0.966   1.584 -0.4060  0.3175 -0.5729
 4591SOL     H239973   4.894   1.088   1.648 -0.2895  0.3945 -0.6042
 4592SOL    OH239974   1.608   5.066   0.812  0.7472 -0.0883 -0.1594
 4592SOL     H139975   1.675   5.078   0.880  1.1510 -2.8221 -0.0022
 4592SOL     H239976   1.541   5.012   0.854  0.7505 -1.3623 -1.7496
 4593SOL    OH239977   7.104   2.281   7.996 -0.1104  0.1236 -0.1957
 4593SOL     H139978   7.113   2.223   8.072 -2.7126  0.9543  0.8385
 4593SOL     H239979   7.017   2.262   7.962 -0.1108  1.8146 -1.1974
 4594SOL    OH239980   5.922   2.610   0.729  0.8373 -0.2507 -0.5171
 4594SOL     H139981   5.988   2.553   0.767  0.3399 -0.7129 -0.3524
 4594SOL     H239982   5.950   2.621   0.638  0.0986 -1.9998 -0.9709
 4595SOL    OH239983   4.782   5.211   2.283  0.8588 -0.0195 -0.2218
 4595SOL     H139984   4.830   5.191   2.364  0.5499  0.0420 -0.0246
 4595SOL     H239985   4.690   5.207   2.308  0.7416 -0.7583 -0.7475
 4596SOL    OH239986   0.689   7.801   0.642  0.6330  0.1545  0.0098
 4596SOL     H139987   0.779   7.768   0.643  0.8986  0.7366 -2.9942
 4596SOL     H239988   0.644   7.745   0.579 -0.4321  1.5881 -0.5161
 4597SOL    OH239989   5.730   2.454   7.816  0.7613  0.5697  0.7608
 4597SOL     H139990   5.775   2.458   7.900  0.8357 -2.1006  0.8769
 4597SOL     H239991   5.663   2.522   7.821  2.7462  2.5084  1.7748
 4598SOL    OH239992   0.604   4.208   6.082 -0.3041  0.0858  0.3015
 4598SOL     H139993   0.654   4.278   6.125  0.0608 -0.1352  0.2366
 4598SOL     H239994   0.528   4.253   6.045 -1.2505  0.0924  2.1966
 4599SOL    OH239995   4.261   7.293   2.082  0.2243  0.2450 -0.0649
 4599SOL     H139996   4.204   7.363   2.114  3.5992  2.6121  1.0127
 4599SOL     H239997   4.251   7.223   2.147 -1.9096  0.3387 -0.2506
 4600SOL    OH239998   1.214   3.966   7.483  0.3725  0.3415 -0.1120
 4600SOL     H139999   1.163   4.045   7.495 -1.2758 -0.5494 -1.0684
 4600SOL     H240000   1.182   3.906   7.550  0.8342  0.0854 -0.1129
 4601SOL    OH240001   5.387   2.111   7.523 -0.4051  0.0409  0.6232
 4601SOL     H140002   5.391   2.064   7.606  0.9154 -0.6102  0.2065
 4601SOL     H240003   5.474   2.150   7.514 -0.1854 -0.7698 -0.9446
 4602SOL    OH240004   5.120   4.578   7.069 -0.4576 -0.4997 -0.2234
 4602SOL     H140005   5.031   4.608   7.088  0.0044  0.9656 -0.3142
 4602SOL     H240006   5.177   4.644   7.109  0.5969 -1.6982  0.2823
 4603SOL    OH240007   1.222   7.379   7.905 -0.0203 -0.2531 -0.4746
 4603SOL     H140008   1.215   7.301   7.851  0.4461  0.4251 -1.5252
 4603SOL     H240009   1.132   7.397   7.932 -0.1661 -0.9908 -0.4475
 4604SOL    OH240010   6.116   5.081   2.553  0.1251  0.1320  0.6359
 4604SOL     H140011   6.151   5.056   2.467 -2.2304 -1.3638  0.0785
 4604SOL     H240012   6.181   5.143   2.588  1.4799  0.2123 -1.8948
 4605SOL    OH240013   4.000   7.314   0.603  0.1321  0.4530 -0.5790
 4605SOL     H140014   4.088   7.301   0.637  0.7800  1.4064 -1.8255
 4605SOL     H240015   3.944   7.261   0.659  1.5954 -0.8256 -0.2844
 4606SOL    OH240016   6.471   2.394   2.131 -0.1483  0.0797 -0.1002
 4606SOL     H140017   6.383   2.373   2.162  0.0959 -1.1859 -0.2525
 4606SOL     H240018   6.529   2.374   2.205  0.1101  0.0912 -0.2959
 4607SOL    OH240019   3.871   4.731   0.216 -0.4501  0.0761 -0.0296
 4607SOL     H140020   3.929   4.808   0.217 -0.1278 -0.1394 -1.0142
 4607SOL     H240021   3.786   4.765   0.245  0.0639  0.4807  1.0253
 4608SOL    OH240022   6.288   0.301   1.443 -0.3216  0.1499  0.6089
 4608SOL     H140023   6.196   0.325   1.454 -0.3211  0.1664  0.5768
 4608SOL     H240024   6.333   0.385   1.432 -0.3864  0.1096  0.0112
 4609SOL    OH240025   2.873   6.693   1.382 -0.1936 -0.6802  0.6226
 4609SOL     H140026   2.820   6.759   1.337 -0.3063 -0.4024  1.1665
 4609SOL     H240027   2.871   6.618   1.323 -0.8596 -0.5293  0.4407
 4610SOL    OH240028   1.982   1.721   7.644 -0.0938 -0.3915 -0.4605
 4610SOL     H140029   2.062   1.671   7.661 -0.4332 -0.9860 -0.5972
 4610SOL     H240030   1.980   1.786   7.714 -0.2254 -1.2908  0.3856
 4611SOL    OH240031   4.038   6.366   0.405  0.4443 -0.0738 -0.6304
 4611SOL     H140032   4.041   6.274   0.377  2.3192 -0.4418  0.7317
 4611SOL     H240033   3.964   6.369   0.467 -1.9084  0.1453 -3.3421
 4612SOL    OH240034   4.465   5.034   6.360  0.4555  0.2441  0.2783
 4612SOL     H140035   4.524   5.067   6.427 -1.0523  1.4884  1.0174
 4612SOL     H240036   4.380   5.072   6.382 -0.5493 -1.2265 -0.9678
 4613SOL    OH240037   3.981   3.985   6.821 -0.6776  0.0649 -0.8126
 4613SOL     H140038   4.026   3.960   6.740 -0.3269  0.1365 -0.6405
 4613SOL     H240039   3.988   3.909   6.878 -0.0033  0.3854 -0.4579
 4614SOL    OH240040   1.279   3.592   1.491 -0.0807 -0.2334 -0.0593
 4614SOL     H140041   1.329   3.635   1.422 -2.8961  0.6940 -1.5801
 4614SOL     H240042   1.281   3.653   1.564  0.7182 -0.0510 -0.2305
 4615SOL    OH240043   5.271   3.057   1.837 -0.3082 -0.4191  0.0697
 4615SOL     H140044   5.337   3.101   1.783  0.0598  1.5618  2.0672
 4615SOL     H240045   5.189   3.100   1.814 -0.3220 -0.3371  0.2716
 4616SOL    OH240046   7.391   2.125   2.498  0.6259  0.3982  0.3655
 4616SOL     H140047   7.429   2.172   2.424 -1.3415  0.4321 -0.6701
 4616SOL     H240048   7.402   2.032   2.477  0.1520  0.4086  0.0546
 4617SOL    OH240049   3.652   4.455   8.114 -0.2318 -0.0103 -0.1073
 4617SOL     H140050   3.613   4.446   8.202  0.5203 -2.6183 -0.0046
 4617SOL     H240051   3.684   4.367   8.093  0.6470  0.8564 -2.5245
 4618SOL    OH240052   1.188   5.049   1.226 -0.1565 -0.3814  0.4689
 4618SOL     H140053   1.282   5.045   1.240 -0.0262  1.0854  0.1542
 4618SOL     H240054   1.151   4.993   1.295  0.9358 -1.0503  0.5305
 4619SOL    OH240055   4.629   5.765   7.566 -0.0363 -0.2804 -0.1143
 4619SOL     H140056   4.673   5.696   7.517 -0.2692 -0.8325  0.4443
 4619SOL     H240057   4.685   5.779   7.643 -0.3145 -0.2899  0.0911
 4620SOL    OH240058   6.662   2.165   7.319  0.1476  1.0864 -0.2573
 4620SOL     H140059   6.750   2.201   7.307 -0.1095  1.2067 -1.8880
 4620SOL     H240060   6.673   2.070   7.309 -0.1140  1.2104 -1.8122
 4621SOL    OH240061   4.704   5.242   6.772  0.3675 -0.5351  0.0054
 4621SOL     H140062   4.792   5.268   6.747 -0.4716  1.2178 -1.2321
 4621SOL     H240063   4.667   5.319   6.816 -0.8691 -0.9056 -0.3435
 4622SOL    OH240064   3.436   2.328   8.052 -0.3647 -0.0366 -0.6446
 4622SOL     H140065   3.353   2.309   8.009 -0.4386 -0.7174 -0.2191
 4622SOL     H240066   3.417   2.315   8.145  0.4601 -1.1091 -0.6220
 4623SOL    OH240067   6.475   4.244   8.217 -0.4245  0.4662  0.4943
 4623SOL     H140068   6.513   4.166   8.177 -0.2339  0.6858  0.2499
 4623SOL     H240069   6.494   4.315   8.156 -3.3731  0.1483 -0.8349
 4624SOL    OH240070   1.244   1.603   8.221 -0.1061  0.0397 -0.2740
 4624SOL     H140071   1.184   1.530   8.236 -0.2635  0.4330  1.0036
 4624SOL     H240072   1.273   1.630   8.308 -1.2380  2.5095 -0.6207
 4625SOL    OH240073   7.625   5.575   7.325 -0.4527  0.0135 -0.0068
 4625SOL     H140074   7.635   5.513   7.397 -0.3827 -0.6231 -0.5572
 4625SOL     H240075   7.593   5.522   7.252  2.3072  0.0471 -1.3260
 4626SOL    OH240076   5.082   7.449   6.616  0.3818  0.0799  0.4217
 4626SOL     H140077   5.157   7.448   6.676  1.9263 -0.7727 -1.4713
 4626SOL     H240078   5.108   7.511   6.547 -1.3380  0.9836  0.5649
 4627SOL    OH240079   5.129   4.881   2.591 -0.2342  0.7129  0.3496
 4627SOL     H140080   5.207   4.846   2.548 -1.2381  0.0562 -0.9613
 4627SOL     H240081   5.122   4.971   2.559 -0.4160  0.5396 -0.1036
 4628SOL    OH240082   6.660   5.846   1.865 -0.1849 -0.3742  0.4257
 4628SOL     H140083   6.625   5.935   1.860  1.4879  0.2927  0.5710
 4628SOL     H240084   6.639   5.817   1.954  0.6337  0.4365  0.8861
 4629SOL    OH240085   3.050   5.929   6.477  0.1728  0.0346  0.8889
 4629SOL     H140086   2.987   5.864   6.507  0.4310 -0.4488  0.4095
 4629SOL     H240087   3.086   5.967   6.557  0.8180 -1.2025  1.2071
 4630SOL    OH240088   5.130   1.131   7.337  0.1592  0.3479  0.2689
 4630SOL     H140089   5.113   1.110   7.429 -0.1272  3.8256  1.0841
 4630SOL     H240090   5.192   1.204   7.340 -0.9178  1.4313 -2.2573
 4631SOL    OH240091   5.877   2.534   2.397  0.4980  0.1100  0.3866
 4631SOL     H140092   5.891   2.470   2.466  0.4289  0.4376  0.7074
 4631SOL     H240093   5.840   2.611   2.442  0.3186  0.2743 -0.0307
 4632SOL    OH240094   0.663   6.489   7.592 -0.2843 -0.5791 -0.2057
 4632SOL     H140095   0.719   6.542   7.649 -1.3618  0.5803 -0.2176
 4632SOL     H240096   0.578   6.533   7.593 -1.1929 -2.2720 -0.2552
 4633SOL    OH240097   7.724   5.895   8.267 -0.5753 -0.1823  0.6780
 4633SOL     H140098   7.743   5.802   8.256 -1.7086 -0.4849  1.1692
 4633SOL     H240099   7.660   5.915   8.198  0.5943  0.5384 -0.2194
 4634SOL    OH240100   2.632   1.606   5.955 -0.4543  0.0397  0.0984
 4634SOL     H140101   2.576   1.666   5.905  0.7126  0.4374 -0.7574
 4634SOL     H240102   2.691   1.568   5.890  0.2019 -0.4559  0.9681
 4635SOL    OH240103   7.121   3.139   7.292  0.6263 -0.4864 -0.6665
 4635SOL     H140104   7.026   3.141   7.276  0.4731  0.6407  0.2844
 4635SOL     H240105   7.160   3.147   7.205 -0.1466 -1.0275 -1.0737
 4636SOL    OH240106   1.588   6.747   0.121  0.0488 -0.1032 -0.0527
 4636SOL     H140107   1.672   6.769   0.080  0.4666  0.1893  0.9329
 4636SOL     H240108   1.610   6.679   0.185 -0.5351 -0.3051 -0.0664
 4637SOL    OH240109   1.740   4.028   7.225 -0.2818 -0.0810  0.0403
 4637SOL     H140110   1.753   4.090   7.153  0.6568  0.8637  1.0052
 4637SOL     H240111   1.659   4.057   7.267  0.6302  1.0653  1.0416
 4638SOL    OH240112   4.669   2.483   7.228 -0.0251  0.0203 -0.3646
 4638SOL     H140113   4.687   2.574   7.256  1.5073 -0.7535  1.3241
 4638SOL     H240114   4.679   2.485   7.133  0.3007  1.5657 -0.3211
 4639SOL    OH240115   4.721   2.517   8.136  0.4981 -0.0240  0.1932
 4639SOL     H140116   4.634   2.491   8.166  0.3944 -0.3277 -0.3680
 4639SOL     H240117   4.728   2.609   8.160 -0.8561  0.6078 -1.7422
 4640SOL    OH240118   5.718   4.493   0.567 -0.4363 -0.2576 -0.3325
 4640SOL     H140119   5.672   4.550   0.504 -1.1352 -1.1904 -0.6723
 4640SOL     H240120   5.686   4.405   0.548  0.0107 -0.6649  0.7564
 4641SOL    OH240121   2.976   6.403   0.300 -0.0202 -0.0122  0.4496
 4641SOL     H140122   2.892   6.366   0.275 -0.2123 -0.2141  1.3813
 4641SOL     H240123   3.029   6.398   0.221 -0.8252 -0.0510 -0.0856
 4642SOL    OH240124   3.406   2.597   0.673 -0.1678  0.2262 -0.5783
 4642SOL     H140125   3.433   2.679   0.713 -1.2073  0.8395 -1.0961
 4642SOL     H240126   3.462   2.589   0.596 -0.6654  0.9128 -1.0214
 4643SOL    OH240127   4.859   0.254   1.698 -0.2736 -0.3128 -0.1772
 4643SOL     H140128   4.911   0.255   1.617 -2.2644  1.0283 -1.4994
 4643SOL     H240129   4.877   0.339   1.739 -0.1819 -0.4959  0.1562
 4644SOL    OH240130   6.068   5.957   8.242 -0.0216 -0.6383 -0.0335
 4644SOL     H140131   6.021   6.008   8.175  0.5324 -0.0692  0.0118
 4644SOL     H240132   6.001   5.937   8.308 -0.2911 -0.1696 -0.1654
 4645SOL    OH240133   2.028   3.530   6.391 -0.1646  0.4277 -0.1200
 4645SOL     H140134   2.050   3.492   6.476  0.0067  0.8582  0.0255
 4645SOL     H240135   1.942   3.570   6.404 -0.5404 -0.2878 -0.3914
 4646SOL    OH240136   7.174   5.101   0.582  0.1618 -0.1462 -0.5767
 4646SOL     H140137   7.222   5.171   0.538 -1.1038  0.5630 -0.8485
 4646SOL     H240138   7.237   5.029   0.588  1.7724  1.3141  0.5309
 4647SOL    OH240139   2.225   6.272   0.979  0.2891  0.1848  0.2888
 4647SOL     H140140   2.245   6.202   0.917  2.0600 -0.8627  2.0074
 4647SOL     H240141   2.298   6.333   0.970 -0.1049  0.6752  0.4276
 4648SOL    OH240142   6.428   7.236   1.078 -0.0660 -0.0607 -0.1878
 4648SOL     H140143   6.336   7.253   1.056 -0.2415 -1.3287 -0.4336
 4648SOL     H240144   6.458   7.177   1.010  0.1077 -1.9792  1.5270
 4649SOL    OH240145   4.537   2.453   0.393 -0.2893  0.5560  0.2267
 4649SOL     H140146   4.632   2.453   0.409 -0.5963  0.8395  2.2254
 4649SOL     H240147   4.525   2.515   0.322  1.2345 -1.0879 -1.5385
 4650SOL    OH240148   3.691   2.442   1.674  0.8585  0.6013  0.3634
 4650SOL     H140149   3.658   2.476   1.591 -2.0728  1.7897  1.9578
 4650SOL     H240150   3.734   2.359   1.650 -2.8451 -0.7940 -1.9454
 4651SOL    OH240151   0.856   7.146   2.661 -0.0373  0.7328  0.4606
 4651SOL     H140152   0.821   7.114   2.578  0.9023  1.8573 -0.3864
 4651SOL     H240153   0.781   7.145   2.720 -0.6415 -0.3881 -0.3101
 4652SOL    OH240154   7.618   3.539   0.883  0.2066 -0.6857  0.0091
 4652SOL     H140155   7.610   3.494   0.799 -1.4613  0.4421 -0.4503
 4652SOL     H240156   7.597   3.472   0.948 -4.1305 -0.1729 -0.7397
 4653SOL    OH240157   0.992   6.588   0.421  0.0233 -0.2111 -0.0207
 4653SOL     H140158   1.031   6.636   0.493  0.7418 -0.2107 -0.4096
 4653SOL     H240159   1.065   6.566   0.364 -0.1815 -2.2812  0.4440
 4654SOL    OH240160   0.231   2.756   6.827  0.2082 -0.0397  0.3353
 4654SOL     H140161   0.247   2.683   6.886 -1.3456 -1.3529 -0.7896
 4654SOL     H240162   0.305   2.756   6.767  1.3002  0.6901  1.6737
 4655SOL    OH240163   6.227   2.758   1.584 -0.1103 -0.9699  0.1812
 4655SOL     H140164   6.212   2.851   1.604  0.2757 -1.1564  1.3850
 4655SOL     H240165   6.139   2.721   1.579 -0.2474 -0.7233  0.6604
 4656SOL    OH240166   6.579   1.797   6.259  0.1108 -0.5262 -0.1177
 4656SOL     H140167   6.628   1.785   6.177 -0.9514 -0.8076 -0.7220
 4656SOL     H240168   6.493   1.827   6.231 -0.7549 -2.0629  0.8071
 4657SOL    OH240169   0.368   2.524   6.966  0.0233 -0.2464  0.1087
 4657SOL     H140170   0.429   2.546   7.037 -0.7612 -0.5033  0.8702
 4657SOL     H240171   0.420   2.470   6.906  0.1971 -1.5687  1.4161
 4658SOL    OH240172   1.182   7.321   6.907  0.2687 -0.0650 -0.2645
 4658SOL     H140173   1.157   7.259   6.975 -0.8302  1.5092  0.7837
 4658SOL     H240174   1.278   7.316   6.905  0.2696 -0.7007  0.8347
 4659SOL    OH240175   7.760   3.907   0.061 -0.3039  0.7258 -0.2884
 4659SOL     H140176   7.798   3.988   0.029  0.2696  0.9036  0.8335
 4659SOL     H240177   7.815   3.838   0.023  0.5897  0.9491  0.5915
 4660SOL    OH240178   5.136   6.959   6.874 -0.4861 -0.0911 -0.1298
 4660SOL     H140179   5.210   7.018   6.888 -1.2785  1.2412 -1.5446
 4660SOL     H240180   5.165   6.900   6.804 -0.5234  0.0048 -0.2253
 4661SOL    OH240181   0.986   3.347   7.935 -0.1929  0.3588  0.0211
 4661SOL     H140182   0.948   3.259   7.927  0.6926 -0.0370  0.1026
 4661SOL     H240183   0.913   3.402   7.962 -0.3495 -0.7120  1.8484
 4662SOL    OH240184   3.245   5.322   7.025  0.1386 -0.1611  0.1380
 4662SOL     H140185   3.169   5.300   7.080  0.1316  0.7803  0.5181
 4662SOL     H240186   3.282   5.237   7.001 -1.0093 -0.6345 -0.0197
 4663SOL    OH240187   1.158   1.578   0.571  0.0035  0.1276 -0.1138
 4663SOL     H140188   1.239   1.626   0.554  0.5950 -0.9947 -0.5733
 4663SOL     H240189   1.183   1.486   0.562 -1.1249 -0.2581  0.6505
 4664SOL    OH240190   2.431   5.947   0.083 -0.3857 -0.2723 -0.0893
 4664SOL     H140191   2.436   5.852   0.094 -0.5535 -0.2570  0.1322
 4664SOL     H240192   2.463   5.983   0.166  1.1551 -0.1133 -0.7472
 4665SOL    OH240193   7.782   6.990   1.216  0.0129 -0.4383  0.1738
 4665SOL     H140194   7.868   7.030   1.232  0.6514 -1.3386 -0.9198
 4665SOL     H240195   7.800   6.920   1.152 -1.3048 -1.5664  1.0276
 4666SOL    OH240196   4.239   4.021   1.640 -0.8516 -0.1929  0.0182
 4666SOL     H140197   4.222   4.089   1.575 -0.1130 -0.3517 -0.3478
 4666SOL     H240198   4.298   3.961   1.596  0.5439  0.2777  1.2231
 4667SOL    OH240199   3.301   4.166   8.126  0.3489 -0.3180 -0.3261
 4667SOL     H140200   3.280   4.177   8.033 -0.8986  0.3478  0.0129
 4667SOL     H240201   3.261   4.242   8.168  1.9666  0.0330  0.6082
 4668SOL    OH240202   2.143   2.301   7.813  0.3733  0.2905  0.3431
 4668SOL     H140203   2.140   2.333   7.723 -2.7336 -0.9102 -0.0218
 4668SOL     H240204   2.215   2.350   7.853  3.1187 -0.6082 -3.2857
 4669SOL    OH240205   3.512   6.887   1.859  0.1659 -0.2720  0.1941
 4669SOL     H140206   3.604   6.885   1.882 -0.2010 -4.8908  1.7410
 4669SOL     H240207   3.504   6.829   1.783 -1.8377 -2.2006  1.8172
 4670SOL    OH240208   3.701  -0.002   1.339  0.0570  0.0717 -0.8014
 4670SOL     H140209   3.741  -0.022   1.254  1.9956  1.1591 -0.1752
 4670SOL     H240210   3.727   0.088   1.357 -1.0575  0.1310  0.5528
 4671SOL    OH240211   5.832   6.084   2.149  0.0517 -0.3195 -0.1522
 4671SOL     H140212   5.775   6.161   2.154  1.7459  0.9895 -0.7374
 4671SOL     H240213   5.774   6.011   2.171 -1.7415  1.0308 -0.2320
 4672SOL    OH240214   3.037   6.828   1.710  0.1328  0.5727 -0.2665
 4672SOL     H140215   3.081   6.864   1.633 -1.0027  1.4998 -0.4919
 4672SOL     H240216   3.031   6.734   1.693 -0.2192  0.7922 -1.3583
 4673SOL    OH240217   2.077   6.798   1.115 -0.1370  0.7101 -0.0204
 4673SOL     H140218   2.127   6.731   1.160 -1.1331 -0.2006 -0.2524
 4673SOL     H240219   2.128   6.818   1.036  0.6217  0.9005  0.5122
 4674SOL    OH240220   1.730   3.657   1.898 -0.0126 -0.0855 -0.6682
 4674SOL     H140221   1.648   3.649   1.848  0.3876 -2.5988 -1.0170
 4674SOL     H240222   1.716   3.603   1.976  1.4974 -0.9724 -0.9928
 4675SOL    OH240223   2.111   0.407   0.694 -0.4299 -0.5867 -0.2687
 4675SOL     H140224   2.196   0.375   0.665 -1.0884 -0.5307 -2.3201
 4675SOL     H240225   2.091   0.480   0.636 -2.0317 -0.8240 -0.0529
 4676SOL    OH240226   1.690   0.714   6.851 -0.2357 -0.6649 -0.0936
 4676SOL     H140227   1.763   0.676   6.900  0.2037  0.0132 -0.2082
 4676SOL     H240228   1.650   0.640   6.805  1.7250 -0.7327 -1.7645
 4677SOL    OH240229   2.215   1.769   5.776  0.2676 -0.2593 -0.2313
 4677SOL     H140230   2.258   1.727   5.702 -0.6187  0.5542 -1.2341
 4677SOL     H240231   2.128   1.729   5.780 -0.4424  1.1521 -0.9507
 4678SOL    OH240232   5.400   6.338   6.649 -0.0502 -0.1056  0.1559
 4678SOL     H140233   5.316   6.313   6.688 -0.4318  0.7109 -0.1386
 4678SOL     H240234   5.465   6.303   6.709 -0.5814 -1.6234 -0.1433
 4679SOL    OH240235   0.151   5.645   7.785  0.7401 -0.3529 -0.4749
 4679SOL     H140236   0.229   5.597   7.759  0.8375 -0.1472 -0.5618
 4679SOL     H240237   0.144   5.717   7.722 -0.7827 -1.6678 -1.8323
 4680SOL    OH240238   2.174   3.629   1.654 -0.4319  0.3806  0.2046
 4680SOL     H140239   2.081   3.650   1.663 -0.4634 -0.3315  1.5110
 4680SOL     H240240   2.194   3.651   1.562 -2.5850 -2.1606 -0.9434
 4681SOL    OH240241   3.088   5.475   6.808 -0.7640  0.3250  0.1782
 4681SOL     H140242   3.140   5.486   6.887 -0.5197  0.7091 -0.0312
 4681SOL     H240243   3.119   5.394   6.769 -1.0853 -0.0123  0.6247
 4682SOL    OH240244   1.174   7.079   0.738  0.0827 -0.3854 -0.2090
 4682SOL     H140245   1.217   7.128   0.668  0.7993  0.0986  0.5574
 4682SOL     H240246   1.197   7.127   0.818 -1.1848 -0.6104  0.2977
 4683SOL    OH240247   7.365   0.440   0.402  0.8678 -0.2274  0.1193
 4683SOL     H140248   7.371   0.527   0.362  0.2338 -0.1197  0.2569
 4683SOL     H240249   7.304   0.393   0.345  0.5939 -0.3289  0.5010
 4684SOL    OH240250   1.560   2.371   1.281  0.0787 -0.2759  0.4678
 4684SOL     H140251   1.596   2.335   1.200 -0.0855  0.9265 -0.1529
 4684SOL     H240252   1.489   2.311   1.305  0.8370 -1.2413  0.3209
 4685SOL    OH240253   5.561   1.082   0.208 -0.5629  0.3625 -0.0468
 4685SOL     H140254   5.648   1.041   0.203 -1.5318 -2.1395  1.9727
 4685SOL     H240255   5.572   1.152   0.273 -0.2714 -0.6060  0.9708
 4686SOL    OH240256   0.743   6.607   1.317 -0.0606 -0.2471 -0.1689
 4686SOL     H140257   0.672   6.588   1.256  0.8788 -0.3525 -1.2467
 4686SOL     H240258   0.822   6.576   1.272  0.6913  0.0788  0.9158
 4687SOL    OH240259   1.097   7.363   0.987 -0.0404  0.5187  0.2087
 4687SOL     H140260   1.108   7.391   0.896 -0.2391  1.2912  0.4143
 4687SOL     H240261   1.003   7.352   0.998 -0.2738  2.7650  0.9655
 4688SOL    OH240262   2.024   3.929   1.838 -0.1027 -0.3988  0.3373
 4688SOL     H140263   2.050   3.984   1.764 -0.6609  0.4541  0.7755
 4688SOL     H240264   1.992   3.848   1.798  1.4090 -0.7105 -0.2805
 4689SOL    OH240265   4.906   1.509   1.408 -0.0639 -0.2210 -0.2473
 4689SOL     H140266   4.979   1.448   1.418 -0.3409 -0.4840  0.1784
 4689SOL     H240267   4.832   1.465   1.449  0.0483  0.9879  1.3192
 4690SOL    OH240268   3.495   3.654   7.701 -0.3616 -0.2546 -0.6408
 4690SOL     H140269   3.477   3.666   7.608  0.3890  1.2194 -0.6036
 4690SOL     H240270   3.448   3.724   7.745  2.3248  1.3612 -0.2430
 4691SOL    OH240271   3.498   1.152   0.162 -0.0263  0.1224 -0.2561
 4691SOL     H140272   3.536   1.118   0.244 -2.7816 -0.8447  0.6801
 4691SOL     H240273   3.497   1.247   0.174  0.8461  0.0767  0.2456
 4692SOL    OH240274   2.250   2.908   5.938 -0.2491 -0.0797  0.0725
 4692SOL     H140275   2.186   2.892   5.869  1.6704  0.5562 -1.9232
 4692SOL     H240276   2.308   2.974   5.901 -0.2529  1.6716  3.0360
 4693SOL    OH240277   7.406   5.125   6.901 -0.3671  0.0443  0.0570
 4693SOL     H140278   7.382   5.093   6.988 -1.7476  1.1414  0.0960
 4693SOL     H240279   7.481   5.182   6.916  0.6490 -1.3352  0.2740
 4694SOL    OH240280   4.010   5.759   0.394  0.0797  0.7532  0.6903
 4694SOL     H140281   4.073   5.729   0.459  1.5027  0.8086 -0.6285
 4694SOL     H240282   4.055   5.828   0.347 -0.8056  0.4993 -0.5636
 4695SOL    OH240283   0.575   5.245   7.573 -0.1135  0.5379 -0.0266
 4695SOL     H140284   0.658   5.247   7.622  0.5113 -0.7314 -1.0080
 4695SOL     H240285   0.517   5.191   7.626  0.6384 -1.0295 -0.7719
 4696SOL    OH240286   0.566   2.446   7.613  0.4161 -0.2296 -0.0929
 4696SOL     H140287   0.494   2.448   7.675  1.8198  1.7232  1.5284
 4696SOL     H240288   0.624   2.376   7.646 -0.3651 -1.3166 -0.9953
 4697SOL    OH240289   0.705   2.706   1.699 -0.4743 -0.3092 -0.3974
 4697SOL     H140290   0.613   2.735   1.698 -0.6594 -0.8761 -0.3373
 4697SOL     H240291   0.725   2.688   1.607 -0.7341 -1.1237 -0.3006
 4698SOL    OH240292   3.025   1.906   7.106 -0.1478  0.1761  0.4428
 4698SOL     H140293   3.081   1.837   7.070 -0.3244 -0.4652  1.3949
 4698SOL     H240294   2.971   1.935   7.032 -0.7050 -1.3272  0.2555
 4699SOL    OH240295   0.301   7.656   0.225 -0.2939  0.4065  0.1686
 4699SOL     H140296   0.373   7.596   0.243 -1.3741 -0.9670  0.0303
 4699SOL     H240297   0.337   7.743   0.243  1.8580 -0.1198 -1.3440
 4700SOL    OH240298   6.590   1.956   8.232 -0.0181 -0.1118 -0.2110
 4700SOL     H140299   6.607   1.980   8.141  1.3815 -1.7260 -0.3963
 4700SOL     H240300   6.661   1.896   8.255 -0.3384  0.2988  1.9583
 4701SOL    OH240301   3.405   2.038   7.587  0.1744 -0.5243  0.2150
 4701SOL     H140302   3.433   2.050   7.496 -0.6992  0.1648  0.0298
 4701SOL     H240303   3.330   1.978   7.580  0.9410 -1.5454  0.6108
 4702SOL    OH240304   6.598   6.195   0.637  0.0011 -0.1198  0.2593
 4702SOL     H140305   6.574   6.239   0.718  0.9881 -2.0129  1.6186
 4702SOL     H240306   6.679   6.149   0.657  1.1569  0.7000 -2.2997
 4703SOL    OH240307   7.636   7.857   1.130 -0.3738 -0.7266  0.2485
 4703SOL     H140308   7.696   7.782   1.120  1.3897  0.6937 -0.0211
 4703SOL     H240309   7.559   7.819   1.172  1.3825 -2.2926  2.2033
 4704SOL    OH240310   1.354   6.049   2.512 -0.6199 -0.3901 -0.0539
 4704SOL     H140311   1.308   6.030   2.430 -0.9699 -0.9303  0.2618
 4704SOL     H240312   1.408   6.125   2.492 -1.2398 -0.0832 -0.5852
 4705SOL    OH240313   2.480   3.345   6.043  0.1214 -0.2400  0.0311
 4705SOL     H140314   2.498   3.252   6.029  0.9544 -0.5141  2.5984
 4705SOL     H240315   2.386   3.349   6.057 -0.1230 -0.4991 -1.5502
 4706SOL    OH240316   5.124   1.802   1.761  0.0741 -0.1144 -0.2389
 4706SOL     H140317   5.138   1.729   1.701 -2.3919 -0.5746 -0.3297
 4706SOL     H240318   5.046   1.846   1.727  0.4463  1.4397  0.8782
 4707SOL    OH240319   1.441   2.868   2.448 -0.0011  0.6032  0.1484
 4707SOL     H140320   1.479   2.887   2.362  3.0079 -0.3427  1.2055
 4707SOL     H240321   1.383   2.793   2.432 -0.1669  1.0025 -1.1975
 4708SOL    OH240322   2.427   0.938   7.315 -0.3876 -0.1750 -0.5002
 4708SOL     H140323   2.492   0.869   7.331 -0.4667 -0.1690 -0.1412
 4708SOL     H240324   2.478   1.018   7.310 -0.6225  0.2479  2.7487
 4709SOL    OH240325   3.260   5.812   1.382 -0.7431  0.2948  0.3151
 4709SOL     H140326   3.287   5.900   1.357 -0.5468  0.0060 -0.5287
 4709SOL     H240327   3.321   5.755   1.335 -1.3620 -0.3090  0.2357
 4710SOL    OH240328   0.019   2.716   1.703 -0.9105 -0.0134  0.1592
 4710SOL     H140329   0.066   2.787   1.660 -2.4427  1.1192  0.3146
 4710SOL     H240330  -0.048   2.759   1.755 -2.5810 -1.6087 -0.6094
 4711SOL    OH240331   4.897   3.191   0.455  0.3715  0.4073 -0.4066
 4711SOL     H140332   4.819   3.203   0.401 -0.4281 -0.1915  0.6011
 4711SOL     H240333   4.878   3.239   0.536  0.1552 -1.4744  0.6980
 4712SOL    OH240334   3.778   2.337   7.307 -0.0088 -0.2659  0.4128
 4712SOL     H140335   3.802   2.270   7.372  1.0256  0.3495  0.6839
 4712SOL     H240336   3.704   2.383   7.346 -1.6131 -2.1023 -0.3650
 4713SOL    OH240337   3.351   0.534   7.147 -0.2688 -0.2478  0.3257
 4713SOL     H140338   3.257   0.551   7.147 -0.1780  0.3014 -1.3972
 4713SOL     H240339   3.359   0.439   7.138 -0.6388 -0.0992 -1.6743
 4714SOL    OH240340   6.014   3.874   7.032 -0.5408 -0.6215 -0.2506
 4714SOL     H140341   5.927   3.860   7.070 -1.3935  2.1709 -1.0870
 4714SOL     H240342   6.000   3.872   6.938 -0.1848  2.1957 -0.4226
 4715SOL    OH240343   6.205   6.098   1.334 -0.0679  0.5549 -0.3218
 4715SOL     H140344   6.129   6.155   1.347  0.7586  1.5851  0.0954
 4715SOL     H240345   6.255   6.107   1.415  0.4654 -0.1683 -0.5714
 4716SOL    OH240346   3.682   2.634   1.875  0.4432 -0.2576  0.1334
 4716SOL     H140347   3.611   2.676   1.827 -0.8689 -0.8881  1.4812
 4716SOL     H240348   3.696   2.551   1.830  0.1294 -0.2563  0.0307
 4717SOL    OH240349   2.609   2.920   0.434  0.2202  0.1629 -0.0382
 4717SOL     H140350   2.651   2.999   0.400  1.3635 -0.8393 -1.0029
 4717SOL     H240351   2.577   2.874   0.356  0.1000 -0.6300  0.4655
 4718SOL    OH240352   6.134   3.371   1.961 -0.6231  0.0817  0.1652
 4718SOL     H140353   6.219   3.337   1.934 -2.1605 -3.2358 -0.6861
 4718SOL     H240354   6.124   3.453   1.912  1.2363 -0.4276 -1.1051
 4719SOL    OH240355   3.435   2.020   7.974 -0.2662 -0.0217 -0.6706
 4719SOL     H140356   3.473   2.102   8.005 -0.8063  0.7274 -1.9559
 4719SOL     H240357   3.408   1.975   8.053 -0.9373  1.5210  0.0025
 4720SOL    OH240358   6.883   2.019   7.512  0.3357  0.0565  0.2785
 4720SOL     H140359   6.891   2.112   7.487  0.8730 -0.4113 -1.4007
 4720SOL     H240360   6.807   2.016   7.570  0.0345  1.4891 -0.0215
 4721SOL    OH240361   1.075   3.114   2.280 -0.1792 -0.0614 -0.1501
 4721SOL     H140362   1.065   3.078   2.368 -0.1102 -0.7757 -0.4336
 4721SOL     H240363   0.988   3.107   2.241  0.0042 -0.6096 -0.4640
 4722SOL    OH240364   4.001   4.221   7.826 -0.4271  0.1551 -0.3078
 4722SOL     H140365   3.994   4.302   7.878  1.7961 -0.5376  1.1478
 4722SOL     H240366   4.054   4.245   7.750 -2.2073  0.7506 -1.3713
 4723SOL    OH240367   5.538   3.377   7.018  0.0428 -0.2847  0.5260
 4723SOL     H140368   5.442   3.380   7.013  0.1457  0.2070 -1.7843
 4723SOL     H240369   5.561   3.450   7.075 -0.8946  0.8993 -0.5663
 4724SOL    OH240370   2.943   6.071   7.816 -0.7939  0.1564 -0.6805
 4724SOL     H140371   2.966   6.014   7.742 -0.3667 -0.3460 -0.1653
 4724SOL     H240372   3.027   6.092   7.857 -1.2099 -1.8329  1.3197
 4725SOL    OH240373   1.804   6.954   0.192  0.5121 -0.0487 -0.1922
 4725SOL     H140374   1.885   6.988   0.231 -0.4132  3.2771 -1.0158
 4725SOL     H240375   1.744   7.028   0.193 -1.9936 -1.9988 -1.1477
 4726SOL    OH240376   3.316   6.517   7.789 -0.0972 -0.1541  0.0019
 4726SOL     H140377   3.406   6.545   7.803 -0.1422 -0.5569  1.1688
 4726SOL     H240378   3.312   6.492   7.697  1.6455 -2.5229  0.5184
 4727SOL    OH240379   0.341   1.200   6.904 -0.5301  0.2554  0.7020
 4727SOL     H140380   0.380   1.167   6.985 -1.2519 -1.5327  0.3401
 4727SOL     H240381   0.247   1.202   6.922 -0.5575  1.6197  0.5137
 4728SOL    OH240382   0.224   5.898   2.363  0.9954  1.0760  0.3583
 4728SOL     H140383   0.235   5.950   2.443  1.0451  1.0587  0.3622
 4728SOL     H240384   0.232   5.807   2.392  0.8908  1.0646  0.3536
 4729SOL    OH240385   7.163   3.040   7.901  0.0565  0.3694  0.3980
 4729SOL     H140386   7.139   3.114   7.845 -0.6119  0.0302  0.2260
 4729SOL     H240387   7.095   2.975   7.885  2.5672 -1.7874 -2.2596
 4730SOL    OH240388   7.186   0.853   0.125 -0.1160  0.0368  0.5637
 4730SOL     H140389   7.159   0.926   0.181  1.1138  0.0036  1.2226
 4730SOL     H240390   7.145   0.776   0.164 -2.1231  0.4716 -0.6320
 4731SOL    OH240391   2.984   1.354   0.030 -0.1135 -0.7836 -0.4533
 4731SOL     H140392   2.988   1.288   0.099  2.3073  1.4614  1.6614
 4731SOL     H240393   3.069   1.349  -0.013 -0.7347 -0.5185 -1.7499
 4732SOL    OH240394   6.273   5.018   2.303 -0.6403  0.2143  0.2430
 4732SOL     H140395   6.301   4.960   2.233  0.3675  0.9777  0.0055
 4732SOL     H240396   6.353   5.060   2.334 -1.2957  1.1661  0.6900
 4733SOL    OH240397   4.472   2.489   5.996 -0.3369 -0.1684 -0.5154
 4733SOL     H140398   4.527   2.415   5.971 -1.4491 -0.9414 -0.7178
 4733SOL     H240399   4.390   2.449   6.025 -1.2118  1.0177 -1.3206
 4734SOL    OH240400   5.544   0.195   7.916 -0.2081  0.2096 -0.0591
 4734SOL     H140401   5.622   0.248   7.936  1.0239 -1.4187 -0.4833
 4734SOL     H240402   5.494   0.250   7.855  0.1669  1.6448  0.8989
 4735SOL    OH240403   7.385   6.251   1.817 -0.3085 -0.6453 -0.2247
 4735SOL     H140404   7.403   6.229   1.909 -0.0166  0.7271  0.0582
 4735SOL     H240405   7.373   6.346   1.817  2.3465 -0.2625 -2.0149
 4736SOL    OH240406   6.182   0.475   7.868 -0.5852  0.0215  0.3874
 4736SOL     H140407   6.194   0.515   7.954 -1.2326  0.0914  0.4456
 4736SOL     H240408   6.266   0.433   7.849 -0.3978  0.1204  0.9930
 4737SOL    OH240409   4.882   3.525   1.825 -0.4191  0.0962  0.0647
 4737SOL     H140410   4.804   3.471   1.836  0.4425 -1.0545  0.6857
 4737SOL     H240411   4.865   3.576   1.746 -1.2115 -1.1916 -0.6238
 4738SOL    OH240412   6.780   1.023   1.753  0.0506 -0.2049 -0.3626
 4738SOL     H140413   6.753   1.113   1.738  1.9823  0.4463 -0.0263
 4738SOL     H240414   6.852   1.029   1.815 -0.2460 -2.0422  0.2036
 4739SOL    OH240415   2.659   3.437   1.086 -0.1535  0.2274  0.2396
 4739SOL     H140416   2.579   3.436   1.140 -1.2626  1.8966 -1.2905
 4739SOL     H240417   2.726   3.475   1.142 -1.2859  1.8909  0.5113
 4740SOL    OH240418   1.331   0.276   0.798  0.3559  0.2492  0.3921
 4740SOL     H140419   1.405   0.216   0.785  1.0344  0.8045  1.5513
 4740SOL     H240420   1.254   0.220   0.795  1.0179 -0.8058  2.1227
 4741SOL    OH240421   5.555   4.738   0.933  0.1682 -0.5270  0.7437
 4741SOL     H140422   5.624   4.673   0.917  0.2500 -0.3818  0.5113
 4741SOL     H240423   5.599   4.822   0.921 -0.6799 -0.4329 -2.0056
 4742SOL    OH240424   3.435   2.570   6.547 -0.6730  0.7796  0.3325
 4742SOL     H140425   3.508   2.554   6.606 -0.6152  2.3302  0.7068
 4742SOL     H240426   3.443   2.503   6.479  2.0439  1.9355 -0.5383
 4743SOL    OH240427   3.799   1.357   7.340 -0.6713 -0.2705  1.2620
 4743SOL     H140428   3.852   1.436   7.336  0.6043 -1.1640 -0.7565
 4743SOL     H240429   3.712   1.385   7.310 -0.4076  0.5082  1.2055
 4744SOL    OH240430   6.348   0.325   7.454 -0.0300  0.2512 -0.8958
 4744SOL     H140431   6.392   0.363   7.530  2.5348 -1.2979 -1.5573
 4744SOL     H240432   6.323   0.237   7.483  0.2250 -0.0476 -1.5788
 4745SOL    OH240433   4.974   7.504   2.035  0.4582 -0.2439 -0.3807
 4745SOL     H140434   4.938   7.457   1.960 -0.8506  0.2529 -0.0758
 4745SOL     H240435   4.910   7.573   2.054  1.6312  0.7435  0.0949
 4746SOL    OH240436   2.229   2.981   7.581  0.3222  0.1081  0.1229
 4746SOL     H140437   2.232   2.894   7.542  2.3833  0.7440 -1.1672
 4746SOL     H240438   2.243   2.966   7.675  2.1587 -0.8037 -0.2933
 4747SOL    OH240439   4.571   6.306   6.080  0.0257  0.2544 -0.1908
 4747SOL     H140440   4.611   6.386   6.115  0.5215 -0.3922  0.7642
 4747SOL     H240441   4.644   6.259   6.039 -0.4067  0.6329 -1.4120
 4748SOL    OH240442   2.025   1.140   7.459 -0.0908 -0.2000  0.0372
 4748SOL     H140443   2.018   1.053   7.500 -0.4377 -0.3594 -0.3519
 4748SOL     H240444   2.063   1.123   7.372 -1.5842 -0.1477 -0.6403
 4749SOL    OH240445   0.152   4.716   0.463  0.0890 -0.1462 -0.4451
 4749SOL     H140446   0.245   4.724   0.485 -0.3960 -0.5573  1.9260
 4749SOL     H240447   0.121   4.643   0.517 -1.5546 -0.1819 -1.4116
 4750SOL    OH240448   7.373   5.011   1.630 -0.0846 -0.3646 -0.3154
 4750SOL     H140449   7.381   5.032   1.537 -1.0867  1.1920 -0.0597
 4750SOL     H240450   7.422   5.080   1.675  0.9382 -1.4672  0.2863
 4751SOL    OH240451   1.684   4.350   5.974  0.1948  0.3922 -0.0483
 4751SOL     H140452   1.748   4.327   5.907 -1.2064 -0.6607 -1.0591
 4751SOL     H240453   1.684   4.275   6.034  0.7197  0.8913  0.5839
 4752SOL    OH240454   5.942   7.054   6.878 -0.4563 -0.2021  0.3760
 4752SOL     H140455   5.873   6.988   6.877  0.4341 -1.1449  0.9624
 4752SOL     H240456   5.895   7.136   6.894 -1.7511 -0.4410 -1.9353
 4753SOL    OH240457   3.081   4.880   7.574 -0.2679  0.0626  0.0224
 4753SOL     H140458   2.989   4.854   7.573  0.0572 -1.2073 -1.7552
 4753SOL     H240459   3.082   4.967   7.613 -1.9264 -0.9095  2.3242
 4754SOL    OH240460   3.850   6.968   0.624 -1.1285 -0.5694 -0.2064
 4754SOL     H140461   3.870   7.021   0.701 -0.6888 -2.3407  0.9087
 4754SOL     H240462   3.764   6.931   0.641 -0.7535 -1.4846 -0.2697
 4755SOL    OH240463   7.872   2.063   1.519 -0.3272  0.1901  0.3153
 4755SOL     H140464   7.835   1.992   1.571 -1.1879 -0.0374 -0.5992
 4755SOL     H240465   7.966   2.048   1.521 -0.5506 -1.4725 -0.5564
 4756SOL    OH240466   1.564   3.548   5.931 -0.3951 -0.0601  0.3120
 4756SOL     H140467   1.553   3.642   5.918  1.1252 -0.1379 -1.7441
 4756SOL     H240468   1.482   3.509   5.901  0.5726  0.3044 -2.9546
 4757SOL    OH240469   5.843   2.411   0.499 -0.2186 -0.5134 -0.7391
 4757SOL     H140470   5.857   2.383   0.589  1.8424 -0.6169 -1.0576
 4757SOL     H240471   5.896   2.491   0.491 -0.3510 -0.5325 -1.8576
 4758SOL    OH240472   7.953   2.431   1.700 -0.4141 -0.8421  0.7992
 4758SOL     H140473   7.960   2.525   1.719  0.4506 -0.9835  1.2321
 4758SOL     H240474   7.863   2.418   1.672 -0.7906 -0.0354  1.6183
 4759SOL    OH240475   1.029   5.220   0.232  0.2506  0.0736 -0.6811
 4759SOL     H140476   1.024   5.293   0.294 -0.1189 -1.5770  1.2794
 4759SOL     H240477   0.997   5.257   0.149 -0.4050  1.9943  0.3909
 4760SOL    OH240478   0.408   4.624   6.957 -0.2369  0.5691  0.1211
 4760SOL     H140479   0.355   4.681   6.901 -0.6370 -0.3360 -0.4402
 4760SOL     H240480   0.345   4.580   7.014  0.1850  1.5777  1.3781
 4761SOL    OH240481   0.989   0.936   0.708 -0.1806  0.2794 -0.3315
 4761SOL     H140482   0.985   0.847   0.673 -1.9704 -0.1175  0.8427
 4761SOL     H240483   1.002   0.991   0.631 -1.8023 -0.7737 -1.3943
 4762SOL    OH240484   7.701   4.110   7.779 -0.4811  0.0217 -0.1179
 4762SOL     H140485   7.702   4.045   7.708 -0.5971 -1.2456  1.0234
 4762SOL     H240486   7.785   4.096   7.824 -1.8319 -1.4788  2.0256
 4763SOL    OH240487   2.741   0.731   1.937 -0.0165  0.1249 -0.4034
 4763SOL     H140488   2.786   0.697   2.015  0.6392  0.0630 -0.8108
 4763SOL     H240489   2.798   0.800   1.904  1.1477 -1.7413 -2.4618
 4764SOL    OH240490   5.844   0.968   6.014 -0.1705 -0.3495 -0.2044
 4764SOL     H140491   5.761   1.016   6.012 -0.4938 -0.9253 -0.5663
 4764SOL     H240492   5.910   1.036   6.028 -0.5495  0.3059 -1.5290
 4765SOL    OH240493   4.948   1.586   0.744  0.0186 -0.0991 -0.0481
 4765SOL     H140494   4.897   1.610   0.666 -0.2457  0.5260  0.3057
 4765SOL     H240495   4.885   1.542   0.801  0.0984 -0.1563 -0.0043
 4766SOL    OH240496   4.404   1.294   6.883  0.3114 -0.1282 -0.2834
 4766SOL     H140497   4.358   1.304   6.800  1.4682  1.1555 -0.7870
 4766SOL     H240498   4.487   1.340   6.870 -0.6624  2.5549  2.5062
 4767SOL    OH240499   0.256   4.521   1.684  0.4227  0.2271  0.2983
 4767SOL     H140500   0.209   4.524   1.767  0.5247 -3.1116  0.5120
 4767SOL     H240501   0.209   4.456   1.631  2.1743  0.0620 -1.1125
 4768SOL    OH240502   1.547   2.540   2.281  0.1436  0.0973 -0.5048
 4768SOL     H140503   1.611   2.579   2.341 -2.2466  0.7597  1.6834
 4768SOL     H240504   1.541   2.602   2.208  1.8330  0.1172 -0.6456
 4769SOL    OH240505   2.065   7.022   7.550  0.0168  0.0031  0.3393
 4769SOL     H140506   2.091   7.010   7.459 -0.8872 -1.3687  0.2522
 4769SOL     H240507   1.985   7.073   7.546 -2.3818 -3.5793  0.0869
 4770SOL    OH240508   7.534   0.283   0.973 -0.0954 -0.6938  0.1342
 4770SOL     H140509   7.485   0.277   0.891  0.9211 -0.7160 -0.4789
 4770SOL     H240510   7.603   0.216   0.965 -0.0286 -0.7390  1.0277
 4771SOL    OH240511   5.705   3.573   7.925 -0.0510  0.1631  1.0428
 4771SOL     H140512   5.734   3.489   7.890  0.8343  0.7731  0.2703
 4771SOL     H240513   5.724   3.568   8.019 -1.1185 -0.9456  1.2063
 4772SOL    OH240514   5.217   3.718   7.735 -0.7214 -0.1768  0.6425
 4772SOL     H140515   5.216   3.684   7.825  2.2559  0.2004  0.8686
 4772SOL     H240516   5.292   3.777   7.733  0.0295 -1.1395 -2.4217
 4773SOL    OH240517   2.166   0.857   0.341  0.4322 -0.1182  0.1573
 4773SOL     H140518   2.205   0.784   0.389  0.5729 -0.0171  0.1992
 4773SOL     H240519   2.195   0.845   0.251  0.0136 -0.4121  0.0645
 4774SOL    OH240520   1.727   6.533   2.345 -0.4483  0.0924  0.3092
 4774SOL     H140521   1.729   6.497   2.433  0.5181  0.0319  0.2702
 4774SOL     H240522   1.802   6.493   2.301 -1.0206 -0.0003 -0.5859
 4775SOL    OH240523   3.938   4.391   6.794  0.4922  0.6435 -0.1367
 4775SOL     H140524   3.949   4.463   6.856  0.9959  1.0984 -0.7470
 4775SOL     H240525   3.845   4.368   6.799  0.4902  0.8095  0.6358
 4776SOL    OH240526   5.975   3.708   0.435  0.4084 -0.2199 -0.1353
 4776SOL     H140527   5.896   3.761   0.424  0.1710 -0.3521  0.8590
 4776SOL     H240528   6.006   3.693   0.346 -1.0187 -0.6636 -0.5823
 4777SOL    OH240529   3.390   3.610   1.978  0.0834 -0.0081 -0.2033
 4777SOL     H140530   3.420   3.543   1.917  0.4024  0.8527 -1.0004
 4777SOL     H240531   3.427   3.585   2.062  0.9059 -0.3662 -0.6701
 4778SOL    OH240532   6.536   3.135   0.996 -0.4331 -0.4238 -0.2373
 4778SOL     H140533   6.594   3.175   0.931 -2.3265  0.0824 -1.6817
 4778SOL     H240534   6.509   3.053   0.955 -2.6867  0.5145 -0.7101
 4779SOL    OH240535   1.009   1.434   8.268 -0.3456  0.2185  0.0568
 4779SOL     H140536   0.916   1.444   8.289 -1.0598 -0.0783 -2.7718
 4779SOL     H240537   1.020   1.341   8.248  0.7254  0.1185  1.0454
 4780SOL    OH240538   6.619   1.120   2.470 -0.3078 -0.0373  0.1586
 4780SOL     H140539   6.592   1.047   2.414  1.4607 -0.1848 -0.5225
 4780SOL     H240540   6.536   1.157   2.501 -1.3544 -0.0563 -2.4153
 4781SOL    OH240541   2.435   6.252   1.465  0.1985 -0.3487 -0.0182
 4781SOL     H140542   2.452   6.176   1.520 -0.0853 -0.0204  0.5164
 4781SOL     H240543   2.436   6.217   1.376  0.3641 -0.9251  0.2070
 4782SOL    OH240544   7.463   4.474   0.577 -0.0206  0.4619 -0.1047
 4782SOL     H140545   7.387   4.531   0.583 -0.2535  0.3320 -1.7528
 4782SOL     H240546   7.436   4.403   0.519  1.6574  0.9235 -1.4845
 4783SOL    OH240547  -0.019   3.164   0.901  0.4161 -0.0614 -0.4357
 4783SOL     H140548   0.012   3.102   0.968  0.1564  0.6305  0.3306
 4783SOL     H240549   0.050   3.165   0.835  1.0010 -0.2124  0.1730
 4784SOL    OH240550   0.429   5.175   1.666 -0.0984 -0.2057 -0.5626
 4784SOL     H140551   0.365   5.164   1.596 -0.1192  0.7030 -0.6861
 4784SOL     H240552   0.381   5.221   1.735  0.1056 -0.5276 -0.2002
 4785SOL    OH240553   4.099   0.607   1.950 -0.4394 -0.7519  0.2060
 4785SOL     H140554   4.013   0.643   1.933 -0.7536 -1.4340  0.3326
 4785SOL     H240555   4.118   0.630   2.040  1.3326  3.0818 -1.0653
 4786SOL    OH240556   6.814   4.051   1.583 -0.4364  0.0248  0.6047
 4786SOL     H140557   6.808   4.094   1.497 -0.6881 -2.7845 -0.8403
 4786SOL     H240558   6.908   4.051   1.603 -0.4030  0.9361  0.4931
 4787SOL    OH240559   7.478   0.805   7.329  1.3380  0.3622  0.2308
 4787SOL     H140560   7.490   0.890   7.370  3.5606  1.3884 -2.3916
 4787SOL     H240561   7.499   0.819   7.236  0.1906 -2.6757 -0.5724
 4788SOL    OH240562   7.032   6.323   6.499 -0.2741 -0.2500 -0.8228
 4788SOL     H140563   7.125   6.303   6.504 -0.6605 -1.9457 -0.1619
 4788SOL     H240564   7.005   6.292   6.412 -0.2664  0.0850 -0.9465
 4789SOL    OH240565   5.885   2.790   6.718  0.1403 -0.6129 -0.2890
 4789SOL     H140566   5.831   2.778   6.797 -0.1931 -0.5183 -0.5026
 4789SOL     H240567   5.869   2.880   6.692  1.8814  0.0437  0.7512
 4790SOL    OH240568   5.163   4.093   0.622  0.1371 -0.3376  0.7795
 4790SOL     H140569   5.074   4.085   0.655  0.9263 -1.5191  2.6652
 4790SOL     H240570   5.194   4.177   0.658  0.6625 -1.1601  2.2686
 4791SOL    OH240571   7.905   3.930   0.980 -0.0145 -0.1959 -0.8194
 4791SOL     H140572   7.833   3.882   0.939 -1.0835  1.1337 -0.5558
 4791SOL     H240573   7.877   4.022   0.977  0.8363  0.1486  0.9538
 4792SOL    OH240574   7.832   5.690   7.195 -0.2745 -0.6222  0.0208
 4792SOL     H140575   7.747   5.663   7.230 -1.0071  0.7541 -0.6919
 4792SOL     H240576   7.891   5.618   7.219 -1.0083 -0.2724  3.0204
 4793SOL    OH240577   3.101   6.058   1.025  0.2793  0.1233 -0.5952
 4793SOL     H140578   3.037   6.111   0.977  1.2606  2.2495  0.4012
 4793SOL     H240579   3.132   6.115   1.095  2.0024 -1.4767 -0.0195
 4794SOL    OH240580   5.333   5.266   6.201 -0.0058  0.2170 -0.4107
 4794SOL     H140581   5.392   5.268   6.126  0.1669  1.4136 -0.2518
 4794SOL     H240582   5.257   5.317   6.173  0.4381  1.4002  0.5470
 4795SOL    OH240583   4.550   5.468   1.091 -0.1326 -0.4394  0.1051
 4795SOL     H140584   4.524   5.419   1.012 -0.9441  0.6990 -0.3682
 4795SOL     H240585   4.470   5.470   1.144 -1.2271  3.2774 -1.4508
 4796SOL    OH240586   0.403   2.942   7.303 -0.1917 -0.1297 -0.2332
 4796SOL     H140587   0.326   2.998   7.311  0.6298  1.2601 -1.7380
 4796SOL     H240588   0.449   2.951   7.386 -0.6139  0.6089 -0.0806
 4797SOL    OH240589   3.236   7.978   0.139  0.2023 -0.1485  0.0744
 4797SOL     H140590   3.273   7.931   0.213  1.7013 -0.7156 -1.0017
 4797SOL     H240591   3.209   7.909   0.077 -0.1780  0.3321 -0.3020
 4798SOL    OH240592   6.973   5.806   0.502 -0.4141 -0.6939  0.2197
 4798SOL     H140593   6.915   5.770   0.569 -0.1126  0.1045  0.9136
 4798SOL     H240594   7.061   5.784   0.533 -0.3106 -1.4626 -0.5768
 4799SOL    OH240595   3.026   6.243   6.502 -0.0608 -0.0434  0.0644
 4799SOL     H140596   3.100   6.199   6.544  1.7766  2.0793 -0.8478
 4799SOL     H240597   2.951   6.224   6.559  1.5388 -0.7135  2.0071
 4800SOL    OH240598   4.529   7.708   7.344 -0.1356  0.0069 -0.0522
 4800SOL     H140599   4.520   7.797   7.379 -0.1112 -1.0514  2.8143
 4800SOL     H240600   4.624   7.694   7.337 -0.1432  0.2755 -0.6673
 4801SOL    OH240601   5.601   0.828   1.059 -0.1870 -0.2878 -0.4473
 4801SOL     H140602   5.533   0.866   1.003 -0.2849 -0.8117 -0.6856
 4801SOL     H240603   5.682   0.869   1.030 -0.5195  1.0190  0.4443
 4802SOL    OH240604   1.022   3.186   7.180  0.0607 -1.0182 -0.1403
 4802SOL     H140605   0.964   3.112   7.163  0.3847 -1.6727  1.4818
 4802SOL     H240606   1.090   3.180   7.113  0.0070 -2.1233 -0.1000
 4803SOL    OH240607   2.731   1.469   7.350  0.2370  0.2387  0.4883
 4803SOL     H140608   2.638   1.467   7.369  0.2829  0.4655  0.7360
 4803SOL     H240609   2.773   1.438   7.430  0.3604 -0.1357  0.2792
 4804SOL    OH240610   4.710   0.718   0.187  0.5443 -0.8846  0.1610
 4804SOL     H140611   4.621   0.754   0.183  0.9386  0.0898  0.0570
 4804SOL     H240612   4.738   0.731   0.277  1.7505  1.6907 -0.5471
 4805SOL    OH240613   2.279   0.972   0.727 -0.0362  0.0068 -0.1534
 4805SOL     H140614   2.331   1.048   0.701 -0.6567  0.5214  0.1047
 4805SOL     H240615   2.233   1.000   0.806 -1.2916 -0.1990 -0.8113
 4806SOL    OH240616   1.594   4.776   7.150 -0.5369 -0.1031 -0.2667
 4806SOL     H140617   1.517   4.768   7.205 -1.8538  0.9150 -1.9265
 4806SOL     H240618   1.602   4.870   7.134  0.0951 -0.3539 -1.4357
 4807SOL    OH240619   7.178   5.189   2.394  0.2739 -0.0853  0.0715
 4807SOL     H140620   7.177   5.209   2.300  1.1701 -0.4041 -0.0094
 4807SOL     H240621   7.115   5.118   2.404 -0.9640  0.9679 -0.0471
 4808SOL    OH240622   1.487   1.524   6.941 -0.1441 -0.5245  0.7868
 4808SOL     H140623   1.422   1.479   6.995 -1.8161  1.0444  0.1420
 4808SOL     H240624   1.519   1.596   6.996 -2.7094  1.8003 -0.6074
 4809SOL    OH240625   4.608   3.103   0.829 -0.0686  0.0370  0.0169
 4809SOL     H140626   4.598   3.122   0.736  1.7251  1.7084  0.1164
 4809SOL     H240627   4.624   3.008   0.833 -0.2571 -0.0591 -1.3644
 4810SOL    OH240628   0.537   5.433   6.713 -0.0839 -0.2804 -0.0888
 4810SOL     H140629   0.514   5.433   6.620  0.1224  2.3166 -0.1827
 4810SOL     H240630   0.471   5.490   6.753  1.7674  1.2584  0.8217
 4811SOL    OH240631   3.960   7.565   1.913  0.0732  0.3071 -0.6722
 4811SOL     H140632   3.976   7.535   1.823  0.2931  0.6742 -0.7589
 4811SOL     H240633   3.893   7.506   1.947  1.6765 -1.3290 -0.2689
 4812SOL    OH240634   6.280   1.402   7.313 -0.6235 -0.0791  0.0117
 4812SOL     H140635   6.341   1.437   7.249  2.3384 -1.0828  2.1672
 4812SOL     H240636   6.198   1.388   7.264  0.7483  1.6042 -2.8537
 4813SOL    OH240637   6.194   4.709   7.083 -0.7159  0.1009 -0.9973
 4813SOL     H140638   6.201   4.718   7.178 -1.3296 -0.0394 -0.9362
 4813SOL     H240639   6.278   4.739   7.050 -0.4920  0.1325 -0.4052
 4814SOL    OH240640   3.040   5.237   1.120 -0.0277 -0.0648 -0.1021
 4814SOL     H140641   3.000   5.255   1.035 -2.6005 -0.0280  1.0737
 4814SOL     H240642   3.029   5.142   1.132 -1.5091  0.2206  1.0341
 4815SOL    OH240643   1.078   5.477   2.092  0.7411 -0.5473 -0.0846
 4815SOL     H140644   1.037   5.467   2.006  1.2093 -0.8376 -0.2742
 4815SOL     H240645   1.144   5.408   2.096  0.5858 -0.6600  0.5901
 4816SOL    OH240646   0.081   0.660   8.032 -0.4708 -0.0053  0.0960
 4816SOL     H140647   0.029   0.681   8.109 -0.4770 -1.1961  0.4236
 4816SOL     H240648   0.054   0.572   8.007 -2.2305  1.2649 -2.7525
 4817SOL    OH240649   0.320   3.847   1.033 -0.3256 -0.0834  0.1964
 4817SOL     H140650   0.317   3.870   1.126 -1.4616  0.3869  0.0493
 4817SOL     H240651   0.371   3.765   1.030  0.0529  0.1099  1.1809
 4818SOL    OH240652   6.392   1.192   8.237 -0.0653  0.1030 -0.2120
 4818SOL     H140653   6.358   1.280   8.216  0.3138 -0.2084 -2.2231
 4818SOL     H240654   6.486   1.205   8.251  0.0330 -0.0263 -0.7558
 4819SOL    OH240655   5.980   5.747   2.067 -0.8333 -0.0412  0.4226
 4819SOL     H140656   6.013   5.681   2.006  1.1644  1.4514 -0.1893
 4819SOL     H240657   5.933   5.697   2.133  0.9371 -2.1430  0.1665
 4820SOL    OH240658   7.830   5.871   6.950  0.6450  0.0401 -0.1864
 4820SOL     H140659   7.901   5.907   6.899  0.3724  0.7985 -0.0394
 4820SOL     H240660   7.870   5.847   7.034  0.5038  1.5802  0.3443
 4821SOL    OH240661   2.793   1.414   5.819 -0.1593  0.1642 -0.2071
 4821SOL     H140662   2.842   1.345   5.774 -0.3654  0.2331 -0.5382
 4821SOL     H240663   2.840   1.495   5.799  0.3216  0.0629  0.5261
 4822SOL    OH240664   3.962   2.153   6.935 -0.2982 -0.2117 -0.2279
 4822SOL     H140665   4.026   2.203   6.986 -1.3209  0.1911  0.6906
 4822SOL     H240666   4.010   2.077   6.904  0.8001  0.4193 -0.1096
 4823SOL    OH240667   0.316   5.323   1.863 -0.5456 -0.0701 -0.1701
 4823SOL     H140668   0.327   5.362   1.949 -0.5602  0.9207 -0.5992
 4823SOL     H240669   0.271   5.391   1.812  1.5845  0.3010 -1.6275
 4824SOL    OH240670   4.658   7.133   7.964  0.7660 -0.2173 -0.0390
 4824SOL     H140671   4.628   7.174   8.046 -2.3581 -1.6502 -0.3982
 4824SOL     H240672   4.721   7.067   7.993  0.4390 -0.0391  1.1342
 4825SOL    OH240673   3.733   5.523   0.068  0.5209 -0.1982  0.5115
 4825SOL     H140674   3.655   5.546   0.017  0.8912  1.9967  0.8834
 4825SOL     H240675   3.778   5.458   0.015  0.5056  1.4729 -1.6047
 4826SOL    OH240676   1.559   5.567   1.980 -0.1415  0.6879 -0.4015
 4826SOL     H140677   1.564   5.621   2.059  0.4478 -0.6413  0.5105
 4826SOL     H240678   1.631   5.505   1.990 -1.0398 -0.5079 -1.2223
 4827SOL    OH240679   6.145   6.895   6.972 -0.4826  0.0259  0.0225
 4827SOL     H140680   6.081   6.937   6.914 -0.2350 -0.3844 -0.5520
 4827SOL     H240681   6.093   6.865   7.047 -0.7249  0.9934  0.2501
 4828SOL    OH240682   3.049   7.136   7.298 -0.5446  0.6492  0.0353
 4828SOL     H140683   2.993   7.211   7.278 -0.9113  1.1660  2.6919
 4828SOL     H240684   3.021   7.067   7.238 -1.1139  2.2290 -1.5323
 4829SOL    OH240685   1.095   7.247   1.348  0.0886 -0.3113  0.2473
 4829SOL     H140686   1.034   7.306   1.392  0.4002  0.8650 -0.8748
 4829SOL     H240687   1.073   7.160   1.382 -0.9827  0.3264  1.2290
 4830SOL    OH240688   4.552   6.194   0.991  0.5742  0.1505 -0.5041
 4830SOL     H140689   4.609   6.179   1.066  0.1928 -0.0301 -0.2446
 4830SOL     H240690   4.509   6.278   1.009  0.3442  0.0187 -0.4285
 4831SOL    OH240691   1.376   6.435   1.647 -0.4574  0.1397  0.0268
 4831SOL     H140692   1.284   6.464   1.649 -0.1182  1.3410 -0.9529
 4831SOL     H240693   1.410   6.470   1.564  1.9009  2.9073  2.0628
 4832SOL    OH240694   3.433   3.628   1.226 -0.2102  0.0613 -0.3668
 4832SOL     H140695   3.509   3.663   1.179 -1.1075  1.6303 -0.6560
 4832SOL     H240696   3.463   3.616   1.316  0.5441  0.1259 -0.6105
 4833SOL    OH240697   3.612   6.551   0.376  0.0345 -0.3751  0.3531
 4833SOL     H140698   3.696   6.566   0.331  0.4008 -2.5551  0.2554
 4833SOL     H240699   3.548   6.595   0.321  0.6646 -1.8240 -1.6211
 4834SOL    OH240700   3.136   1.443   7.322 -0.2876 -0.2140 -0.2841
 4834SOL     H140701   3.167   1.367   7.274 -2.1700  0.2131 -2.2761
 4834SOL     H240702   3.113   1.507   7.254 -2.4607  0.6291  1.1754
 4835SOL    OH240703   3.288   5.529   7.494  0.1424  0.6722 -0.0501
 4835SOL     H140704   3.343   5.451   7.502 -2.1243 -1.0317 -0.3477
 4835SOL     H240705   3.247   5.538   7.581 -0.1989  1.0531 -0.2489
 4836SOL    OH240706   2.741   4.777   2.639 -0.2339  0.3342 -0.1480
 4836SOL     H140707   2.701   4.721   2.705 -0.9699  0.0286 -0.8489
 4836SOL     H240708   2.745   4.863   2.681 -0.8429  0.1795  0.2324
 4837SOL    OH240709   1.540   4.606   1.464 -0.7724  0.2044 -0.8691
 4837SOL     H140710   1.468   4.667   1.478  0.0500  1.1676 -0.7877
 4837SOL     H240711   1.614   4.646   1.509 -0.9520 -2.3346  1.8375
 4838SOL    OH240712   1.393   4.939   0.986 -0.3157  0.6040 -0.1630
 4838SOL     H140713   1.395   4.959   1.080 -0.0398  0.8801 -0.2283
 4838SOL     H240714   1.302   4.952   0.961 -0.4436  0.2732  0.1223
 4839SOL    OH240715   0.965   7.302   7.256 -0.0102 -0.3348  0.0820
 4839SOL     H140716   0.936   7.378   7.307  0.8325  0.4703 -0.6199
 4839SOL     H240717   0.886   7.272   7.212 -0.1899  0.6261 -0.2632
 4840SOL    OH240718   4.358   7.110   7.326 -0.4570 -0.5344 -0.2597
 4840SOL     H140719   4.449   7.113   7.298 -0.4020 -1.2417 -0.1730
 4840SOL     H240720   4.361   7.087   7.419 -0.6303  2.1668  0.4354
 4841SOL    OH240721   6.371   4.415   0.662  0.1788  0.5918  0.1264
 4841SOL     H140722   6.420   4.496   0.648  1.4326  0.1035  1.5818
 4841SOL     H240723   6.437   4.346   0.655 -0.6594 -0.2107  0.1114
 4842SOL    OH240724   5.738   3.137   1.679 -0.3837 -0.3569  0.8770
 4842SOL     H140725   5.803   3.109   1.743  0.3216 -0.6287  0.0450
 4842SOL     H240726   5.719   3.058   1.628 -1.0394 -0.1727  0.8322
 4843SOL    OH240727   2.684   0.485   7.735 -0.1943 -0.5322  0.0476
 4843SOL     H140728   2.769   0.440   7.735 -0.9924 -2.1150  2.3250
 4843SOL     H240729   2.704   0.575   7.762  0.6546 -1.1308  1.4638
 4844SOL    OH240730   4.051   0.665   7.004  0.2355 -0.5737 -0.1794
 4844SOL     H140731   4.111   0.707   7.065 -0.6192  0.2995  0.0778
 4844SOL     H240732   3.992   0.612   7.058  0.2169 -0.7251 -0.3450
 4845SOL    OH240733   6.934   3.817   2.603 -0.2307  0.6143 -0.0090
 4845SOL     H140734   6.980   3.764   2.538 -1.3358  0.3203 -0.5483
 4845SOL     H240735   6.931   3.762   2.681 -0.1456  0.4261 -0.1375
 4846SOL    OH240736   3.119   6.189   7.377 -0.0975  0.3711 -0.0629
 4846SOL     H140737   3.046   6.243   7.407  0.5066  0.7475  0.7726
 4846SOL     H240738   3.149   6.145   7.457  0.8721  0.5721 -0.3130
 4847SOL    OH240739   0.006   4.698   1.626 -0.3282 -0.0053  0.1654
 4847SOL     H140740  -0.048   4.686   1.548  0.7968 -1.6919 -0.3643
 4847SOL     H240741   0.068   4.766   1.603 -0.2613 -0.2154 -0.2725
 4848SOL    OH240742   3.407   1.048   6.588 -0.1634 -0.4516 -0.4413
 4848SOL     H140743   3.361   1.129   6.610  0.5500 -0.0358 -0.4756
 4848SOL     H240744   3.339   0.980   6.591 -0.5909  0.0100  0.4597
 4849SOL    OH240745   7.503   1.006   0.653  0.2323 -0.6319 -0.3093
 4849SOL     H140746   7.547   0.936   0.703 -2.2943 -1.1816  1.2276
 4849SOL     H240747   7.464   1.062   0.720 -1.1874 -0.0271 -1.6273
 4850SOL    OH240748   7.447   7.640   0.866  0.1646  0.0630 -0.0743
 4850SOL     H140749   7.526   7.670   0.911 -0.0214  1.0125 -0.3749
 4850SOL     H240750   7.478   7.609   0.781  0.2043  0.5163 -0.2260
 4851SOL    OH240751   5.073   4.362   0.665 -0.3492  0.2872  0.3654
 4851SOL     H140752   5.012   4.305   0.712 -1.4261  0.5407 -0.6829
 4851SOL     H240753   5.020   4.437   0.639  0.5937  0.8602  0.0625
 4852SOL    OH240754   0.497   7.407   8.183  0.6415 -0.1162 -0.1869
 4852SOL     H140755   0.537   7.459   8.253 -0.4093 -0.7660  0.9179
 4852SOL     H240756   0.528   7.448   8.103  0.6428  1.6112  0.6654
 4853SOL    OH240757   2.310   2.896   7.214 -0.0680  0.5847  0.5454
 4853SOL     H140758   2.255   2.872   7.139  0.4512  2.2227 -0.3932
 4853SOL     H240759   2.289   2.831   7.281  0.6214 -1.8629 -1.5573
 4854SOL    OH240760   5.646   2.274   0.359  0.7422 -0.4572 -0.5749
 4854SOL     H140761   5.672   2.182   0.353 -2.1896 -1.4054  0.2435
 4854SOL     H240762   5.705   2.311   0.425  2.9401 -1.3437 -1.9964
 4855SOL    OH240763   7.608   7.513   1.341  0.3194 -0.0185 -0.0035
 4855SOL     H140764   7.569   7.464   1.270 -0.9052 -0.1582  0.7559
 4855SOL     H240765   7.634   7.446   1.405  1.4690  0.0989 -0.3402
 4856SOL    OH240766   4.923   0.389   0.592 -0.3648 -0.1906 -0.2593
 4856SOL     H140767   4.911   0.324   0.523 -2.2178  2.1480 -2.2304
 4856SOL     H240768   4.862   0.459   0.570 -0.0557  1.2259  3.0485
 4857SOL    OH240769   4.258   1.556   7.751  0.0488 -0.5373 -0.0849
 4857SOL     H140770   4.277   1.585   7.662 -1.1421 -2.4351 -0.9953
 4857SOL     H240771   4.162   1.549   7.754 -0.0137  0.6129  1.7196
 4858SOL    OH240772   6.619   6.823   0.224  0.0727 -0.3346 -0.3669
 4858SOL     H140773   6.588   6.889   0.286 -0.0677 -0.4692 -0.2916
 4858SOL     H240774   6.544   6.765   0.211  0.6013 -1.2822  0.6292
 4859SOL    OH240775   6.793   1.305   6.543  0.0560  0.6570  0.7565
 4859SOL     H140776   6.770   1.360   6.618 -1.5967 -2.2856  2.5277
 4859SOL     H240777   6.821   1.222   6.583 -1.7009 -1.2992 -1.9013
 4860SOL    OH240778   1.029   3.281   0.251  0.2951  0.6789  0.6772
 4860SOL     H140779   1.031   3.208   0.313 -1.4133 -0.9720 -1.1685
 4860SOL     H240780   0.936   3.294   0.232  0.8285  0.7228 -2.0715
 4861SOL    OH240781   1.619   5.180   2.037  0.4714 -0.1100 -0.2976
 4861SOL     H140782   1.663   5.261   2.011  0.5245 -0.0055  0.1109
 4861SOL     H240783   1.636   5.173   2.131 -1.0311  0.3195  0.0118
 4862SOL    OH240784   1.430   6.084   6.299 -0.3820  0.1926  0.1416
 4862SOL     H140785   1.396   6.020   6.361 -1.1311  2.0584  1.7326
 4862SOL     H240786   1.352   6.125   6.261  0.0517  1.8448  0.9727
 4863SOL    OH240787   6.634   0.883   7.919  0.0958 -0.7416  0.4484
 4863SOL     H140788   6.612   0.876   7.826  1.5065 -1.4030  0.1565
 4863SOL     H240789   6.718   0.929   7.921  0.2941 -1.1268  1.3720
 4864SOL    OH240790   3.599   2.557   1.412 -0.7744 -0.3062  0.3204
 4864SOL     H140791   3.641   2.504   1.344  0.1160  0.7427  0.0257
 4864SOL     H240792   3.532   2.500   1.449 -0.0220 -1.5433 -0.1675
 4865SOL    OH240793   1.474   6.158   0.343  0.5998 -0.5212 -0.5577
 4865SOL     H140794   1.527   6.235   0.324 -0.2115  0.4548  1.0035
 4865SOL     H240795   1.491   6.140   0.436 -1.0282 -0.7795 -0.2971
 4866SOL    OH240796   0.475   6.622   5.387 -0.8093 -0.7623  0.1664
 4866SOL     H140797   0.417   6.586   5.321 -0.8157 -1.0144  0.3100
 4866SOL     H240798   0.530   6.549   5.414  0.5454 -0.1876 -0.9981
 4867SOL    OH240799   4.998   3.088   2.213 -0.0452 -0.0920  0.2821
 4867SOL     H140800   5.086   3.119   2.193  1.1826 -1.4777  3.2190
 4867SOL     H240801   4.966   3.150   2.279 -0.3704 -0.9069  0.8938
 4868SOL    OH240802   7.467   5.913   2.263  0.1016  0.2443  0.3817
 4868SOL     H140803   7.548   5.918   2.313  0.3507 -1.7177  0.1914
 4868SOL     H240804   7.407   5.864   2.318 -1.5772  3.2075  1.2900
 4869SOL    OH240805   2.306   0.556   1.019  0.0259  0.3576 -0.1793
 4869SOL     H140806   2.290   0.553   0.925 -0.6587  0.6513 -0.0792
 4869SOL     H240807   2.228   0.599   1.055 -0.2448 -0.7944  0.6402
 4870SOL    OH240808   1.826   2.746   2.234 -0.0036 -0.4167 -0.0629
 4870SOL     H140809   1.870   2.808   2.175  0.6058  0.1844  1.0150
 4870SOL     H240810   1.896   2.687   2.263 -0.2394 -0.5042  0.3299
 4871SOL    OH240811   4.165   3.505   0.563  0.2286 -0.5341  0.1741
 4871SOL     H140812   4.209   3.529   0.482 -1.3093  3.3965  0.3560
 4871SOL     H240813   4.079   3.472   0.535 -0.1541  0.4556  0.1633
 4872SOL    OH240814   6.241   4.029   7.134  0.1078  0.4849 -0.0717
 4872SOL     H140815   6.158   3.982   7.126  0.9147 -1.1996  1.2543
 4872SOL     H240816   6.248   4.050   7.227  0.9691  1.0087 -0.2461
 4873SOL    OH240817   7.479   6.611   7.795  0.8403  0.4776 -0.3052
 4873SOL     H140818   7.407   6.671   7.773 -0.2307 -2.0110 -4.0235
 4873SOL     H240819   7.558   6.656   7.765  0.4670  1.5680  0.2910
 4874SOL    OH240820   4.975   1.004   1.253 -0.7547 -0.1961  0.4058
 4874SOL     H140821   5.069   1.015   1.266 -0.7957  0.1189  0.4326
 4874SOL     H240822   4.939   1.092   1.261 -0.8113 -0.0148 -1.6153
 4875SOL    OH240823   4.321   7.956   0.729  0.5567  0.2670 -0.1221
 4875SOL     H140824   4.299   7.941   0.637  1.1223 -0.2059 -0.1834
 4875SOL     H240825   4.387   7.890   0.749 -1.1617 -1.0941  1.2525
 4876SOL    OH240826   7.875   0.775  -0.015  0.3331 -0.2318 -0.2670
 4876SOL     H140827   7.788   0.802  -0.045 -0.0770  0.7960  1.7181
 4876SOL     H240828   7.858   0.734   0.070  2.0314  2.3124  1.3608
 4877SOL    OH240829   7.846   0.321   0.454 -0.4346  0.2546  0.2184
 4877SOL     H140830   7.876   0.231   0.470 -0.7985 -0.0442 -0.7040
 4877SOL     H240831   7.926   0.369   0.432 -0.1465  0.3195  1.4063
 4878SOL    OH240832   7.392   4.082   6.463  0.0808 -0.8924  0.2247
 4878SOL     H140833   7.421   4.127   6.383 -2.3677  0.8643  0.2494
 4878SOL     H240834   7.325   4.020   6.433 -1.0080 -0.0700  0.8814
 4879SOL    OH240835   4.686   0.388   7.930 -0.5355  0.0129  0.0336
 4879SOL     H140836   4.757   0.333   7.964  0.3210  0.3780 -1.1271
 4879SOL     H240837   4.606   0.349   7.965  0.2815  0.1284  2.1196
 4880SOL    OH240838   0.595   6.340   7.925  0.3144 -0.2258  0.6069
 4880SOL     H140839   0.581   6.433   7.943  1.0484 -0.3575  1.8554
 4880SOL     H240840   0.507   6.302   7.926 -0.2264  0.8119 -2.0714
 4881SOL    OH240841   5.058   3.905   8.302  0.1865  0.0118  0.2227
 4881SOL     H140842   5.069   3.811   8.285  0.2047 -0.0361  0.4921
 4881SOL     H240843   5.094   3.948   8.225  1.4852 -0.1686  0.7236
 4882SOL    OH240844   7.418   7.092   1.736  0.1595  0.0873 -0.3047
 4882SOL     H140845   7.422   7.141   1.653 -2.3902  1.3721  0.2686
 4882SOL     H240846   7.468   7.146   1.798  2.0157 -0.8418 -0.9669
 4883SOL    OH240847   3.156   3.967   7.932 -0.6323  0.0397  0.0408
 4883SOL     H140848   3.068   3.950   7.967 -0.2601  0.6574  1.2982
 4883SOL     H240849   3.159   4.062   7.921  0.3668  0.1574  1.3092
 4884SOL    OH240850   6.234   7.423   2.229 -0.7239  0.6730  0.1546
 4884SOL     H140851   6.255   7.504   2.275 -1.4123  1.1705 -0.3751
 4884SOL     H240852   6.139   7.414   2.240 -0.8154  0.5234 -0.7045
 4885SOL    OH240853   4.721   0.768   7.243 -0.2496 -0.4080 -0.1653
 4885SOL     H140854   4.775   0.694   7.213  1.1477  0.9493 -1.1011
 4885SOL     H240855   4.699   0.747   7.334 -2.6650 -3.5324 -1.3824
 4886SOL    OH240856   2.362   7.299   0.940  0.3574 -0.0423 -0.2212
 4886SOL     H140857   2.324   7.360   1.003  1.7726 -0.5858  1.2088
 4886SOL     H240858   2.447   7.275   0.979  1.0317 -0.7763 -2.0964
 4887SOL    OH240859   1.036   1.379   1.570  0.8448 -0.1731  0.0430
 4887SOL     H140860   1.069   1.468   1.565  0.9441 -0.2122 -0.0069
 4887SOL     H240861   0.953   1.386   1.616 -0.2816  0.2386 -1.9996
 4888SOL    OH240862   3.252   3.455   6.905  0.4624 -0.6857 -0.6230
 4888SOL     H140863   3.159   3.431   6.901  0.8372 -2.0183 -2.0676
 4888SOL     H240864   3.258   3.519   6.975 -1.7881  0.4380 -1.4149
 4889SOL    OH240865   5.612   0.430   1.491  0.0352 -0.2269 -0.1718
 4889SOL     H140866   5.614   0.522   1.519 -0.1206 -0.3390  0.2087
 4889SOL     H240867   5.700   0.397   1.507 -0.4908 -0.7475  1.7231
 4890SOL    OH240868   6.758   6.260   7.567  0.1116 -0.2415  0.1914
 4890SOL     H140869   6.811   6.204   7.509  0.8744  0.5164  0.1539
 4890SOL     H240870   6.730   6.333   7.512 -0.1268 -0.1090  0.4837
 4891SOL    OH240871   6.812   2.742   7.027 -0.7426  0.0964  0.2480
 4891SOL     H140872   6.861   2.759   7.108 -0.4753 -1.0309  0.3266
 4891SOL     H240873   6.728   2.707   7.056 -1.0558  0.6819  0.0622
 4892SOL    OH240874   0.611   6.611   1.877  0.0499  0.2686  0.2232
 4892SOL     H140875   0.595   6.693   1.925 -0.8020 -0.1307  0.6357
 4892SOL     H240876   0.584   6.542   1.938 -1.5233 -0.2380 -1.0013
 4893SOL    OH240877   3.793   2.857   1.280  0.4740 -0.0614 -0.1904
 4893SOL     H140878   3.733   2.917   1.325  0.2527  0.3367 -0.9964
 4893SOL     H240879   3.869   2.911   1.258  0.0007  0.1087 -1.4939
 4894SOL    OH240880   1.851   4.903   6.674 -0.1148  0.3942 -0.5272
 4894SOL     H140881   1.844   4.819   6.719 -1.4845  0.1243 -1.2197
 4894SOL     H240882   1.945   4.913   6.657  0.1275 -0.6831  0.1289
 4895SOL    OH240883   6.949   2.009   2.227  0.4364  0.1959  0.3433
 4895SOL     H140884   7.028   1.974   2.268 -0.4313 -1.0395  1.0075
 4895SOL     H240885   6.949   1.970   2.139  0.8189  0.5838  0.1713
 4896SOL    OH240886   5.846   7.912   7.339 -0.2074 -0.5253  0.4853
 4896SOL     H140887   5.859   7.883   7.248 -0.1622 -1.7273  0.8594
 4896SOL     H240888   5.905   7.857   7.390  0.1624  0.5197  1.1929
 4897SOL    OH240889   6.704   1.755   6.501  0.0543 -0.1191  0.0447
 4897SOL     H140890   6.654   1.780   6.423 -1.1479 -1.8122  0.2506
 4897SOL     H240891   6.795   1.775   6.479 -0.1471 -1.5624 -2.1790
 4898SOL    OH240892   7.053   5.038   1.422 -0.2974  0.1135  0.1849
 4898SOL     H140893   6.972   5.047   1.372 -0.9456  0.9303  1.3554
 4898SOL     H240894   7.091   5.126   1.423  0.3093 -0.1412  0.1497
 4899SOL    OH240895   2.736   6.558   1.607  0.3057  0.3084  0.4568
 4899SOL     H140896   2.675   6.625   1.576 -0.1230 -0.2271  0.1319
 4899SOL     H240897   2.721   6.483   1.550 -1.8521 -1.3731  3.0915
 4900SOL    OH240898   2.869   0.167   6.532 -0.4376  0.1953 -0.1072
 4900SOL     H140899   2.924   0.090   6.514 -0.0365  0.4788 -0.0954
 4900SOL     H240900   2.870   0.175   6.627  0.4925  0.9163 -0.1668
 4901SOL    OH240901   5.371   1.028   7.862 -0.3302 -0.0295 -0.6644
 4901SOL     H140902   5.422   1.021   7.942 -0.7548 -1.9524 -0.5568
 4901SOL     H240903   5.404   1.107   7.819  0.3522  0.6325  1.0705
 4902SOL    OH240904   0.538   4.911   1.237 -0.1867 -0.2818  0.0754
 4902SOL     H140905   0.615   4.942   1.191 -0.3378 -1.0394 -0.6946
 4902SOL     H240906   0.516   4.828   1.194 -0.7636 -0.6255  1.0152
 4903SOL    OH240907   4.389   3.613   1.245 -0.1884 -0.1224  0.5005
 4903SOL     H140908   4.418   3.584   1.332 -2.5773 -0.1435  1.3207
 4903SOL     H240909   4.301   3.648   1.259  0.3516  2.1783 -1.5006
 4904SOL    OH240910   4.522   7.900   1.559  0.3876 -0.7438 -0.0059
 4904SOL     H140911   4.447   7.873   1.506  0.1802 -0.7726  0.2965
 4904SOL     H240912   4.599   7.876   1.507  0.1833  0.0328 -0.6780
 4905SOL    OH240913   0.189   3.624   7.543  0.1315  0.6025  0.4158
 4905SOL     H140914   0.215   3.553   7.483  0.3317  0.5727  0.5354
 4905SOL     H240915   0.105   3.655   7.509  0.2924  0.6517  0.0616
 4906SOL    OH240916   6.460   2.941   0.817 -0.5084  0.1426  0.3940
 4906SOL     H140917   6.389   2.877   0.824 -1.2360  0.8228 -0.6115
 4906SOL     H240918   6.456   2.972   0.726 -0.2600  1.7062  0.9012
 4907SOL    OH240919   3.365   1.554   5.966  0.3312  0.5533  0.4898
 4907SOL     H140920   3.335   1.554   5.875 -1.0878  1.4225  0.9356
 4907SOL     H240921   3.371   1.461   5.989  1.4860  0.3150 -0.7294
 4908SOL    OH240922   5.996   7.000   0.620  0.0449  0.6168 -0.7682
 4908SOL     H140923   5.998   7.087   0.659  0.4113 -0.0796  0.8007
 4908SOL     H240924   6.088   6.981   0.599 -0.0305  0.5913 -1.0780
 4909SOL    OH240925   6.449   7.435   7.731 -0.2528 -0.0150 -0.4211
 4909SOL     H140926   6.383   7.445   7.799 -1.3556 -0.2086 -1.4483
 4909SOL     H240927   6.411   7.372   7.669  0.3728  0.7874 -1.6466
 4910SOL    OH240928   5.134   1.160   2.402 -0.7946 -0.0839 -0.7672
 4910SOL     H140929   5.139   1.070   2.434 -0.1684  0.4540  0.7178
 4910SOL     H240930   5.200   1.164   2.333  1.2913 -0.0112  1.1629
 4911SOL    OH240931   1.223   7.791   0.569  0.7894 -0.3805  0.0138
 4911SOL     H140932   1.239   7.853   0.497 -1.0585  1.0367  0.8010
 4911SOL     H240933   1.234   7.843   0.648  1.6116 -1.6570  0.7499
 4912SOL    OH240934   2.610   4.687   6.701  0.1050 -0.0056  0.2681
 4912SOL     H140935   2.598   4.644   6.617 -0.8840  0.6757  0.0470
 4912SOL     H240936   2.683   4.641   6.742  0.3915 -0.5382 -0.8300
 4913SOL    OH240937   3.881   7.350   7.831 -0.6364  0.0456 -0.5986
 4913SOL     H140938   3.869   7.353   7.926  1.9943 -0.0221 -0.2234
 4913SOL     H240939   3.942   7.278   7.817 -2.1381 -0.8900 -2.5087
 4914SOL    OH240940   0.325   2.062   7.287 -0.3231  0.8909 -0.2145
 4914SOL     H140941   0.373   2.055   7.369  0.2569  0.9197 -0.5528
 4914SOL     H240942   0.277   2.145   7.296 -1.7716 -0.0416  0.8886
 4915SOL    OH240943   5.333   6.112   0.220 -0.1066 -0.0840  0.1727
 4915SOL     H140944   5.265   6.175   0.246  1.3572  1.0327  1.3986
 4915SOL     H240945   5.284   6.038   0.184 -1.9465  1.0103  0.3195
 4916SOL    OH240946   5.505   3.367   2.143  0.0779 -0.0088 -0.2906
 4916SOL     H140947   5.413   3.347   2.161 -0.4112  1.1936 -1.4313
 4916SOL     H240948   5.531   3.426   2.213  0.1970 -0.9105  0.4375
 4917SOL    OH240949   2.743   4.608   1.226 -0.0073  0.1986 -0.0402
 4917SOL     H140950   2.769   4.575   1.140  0.0427 -0.4857  0.2326
 4917SOL     H240951   2.693   4.536   1.264 -0.3029  0.6235  0.3787
 4918SOL    OH240952   6.327   3.499   0.041  0.4392  0.3779  0.4191
 4918SOL     H140953   6.291   3.572  -0.009  1.2904  1.4294  1.3106
 4918SOL     H240954   6.251   3.454   0.077 -0.0863  0.9036 -0.0236
 4919SOL    OH240955   2.715   7.912   0.655  0.4968 -0.0656  0.1365
 4919SOL     H140956   2.646   7.978   0.644  0.4261 -0.1541  0.0503
 4919SOL     H240957   2.669   7.828   0.649  0.4682 -0.1166  0.9892
 4920SOL    OH240958   2.984   1.708   7.737 -0.1355 -0.4683 -0.0277
 4920SOL     H140959   2.944   1.737   7.819 -0.4471 -0.8336 -0.0480
 4920SOL     H240960   2.988   1.612   7.746 -0.7765 -0.5661 -0.7116
 4921SOL    OH240961   3.190   1.887   1.669  0.1774  0.1887  0.5584
 4921SOL     H140962   3.113   1.886   1.612 -0.9212  1.0850  1.9979
 4921SOL     H240963   3.160   1.846   1.750  1.8068 -1.3307  0.4106
 4922SOL    OH240964   1.534   2.585   0.499  1.0146  0.2214  0.3030
 4922SOL     H140965   1.459   2.527   0.510  0.1462  1.3734  0.6309
 4922SOL     H240966   1.554   2.616   0.587  0.5046  1.5726 -0.0361
 4923SOL    OH240967   6.737   4.365   7.874 -0.1563 -0.2060  0.2675
 4923SOL     H140968   6.684   4.433   7.916 -0.6391 -0.5856  0.2822
 4923SOL     H240969   6.748   4.395   7.784 -1.7246 -0.8620 -0.1728
 4924SOL    OH240970   7.168   6.688   8.039 -0.2741  0.5834 -0.3268
 4924SOL     H140971   7.156   6.595   8.016 -1.0389  0.5546  0.1750
 4924SOL     H240972   7.109   6.735   7.981 -1.5766  0.5772  0.9808
 4925SOL    OH240973   6.606   6.539   1.215 -0.1827  0.1418  0.2448
 4925SOL     H140974   6.647   6.470   1.163  1.2992 -0.4134  2.0900
 4925SOL     H240975   6.519   6.505   1.235 -2.1148  1.7791 -4.5873
 4926SOL    OH240976   4.021   1.454   7.858  0.0476 -1.1300  0.1353
 4926SOL     H140977   3.941   1.402   7.865 -1.9731  1.5328 -1.8693
 4926SOL     H240978   4.071   1.413   7.787  1.3788 -3.8668  2.5697
 4927SOL    OH240979   1.862   0.895   6.437  0.4972 -0.4072  0.6064
 4927SOL     H140980   1.946   0.852   6.453  0.3167 -0.3451  1.7783
 4927SOL     H240981   1.861   0.969   6.498  0.1743  0.3993 -0.3684
 4928SOL    OH240982   4.427   1.930   1.518  0.5080 -0.2511 -0.0932
 4928SOL     H140983   4.474   2.000   1.563 -0.2054  0.1747 -0.0065
 4928SOL     H240984   4.470   1.923   1.433 -0.5496  1.5019 -0.7856
 4929SOL    OH240985   3.955   1.145   7.453 -0.5664  0.0656 -0.3682
 4929SOL     H140986   3.899   1.083   7.500 -0.4802 -0.2044 -0.6204
 4929SOL     H240987   3.893   1.205   7.410 -0.6324  1.2543  1.3250
 4930SOL    OH240988   3.635   0.306   0.183  0.4059 -0.3394  0.6414
 4930SOL     H140989   3.570   0.262   0.129  1.6457 -1.5240  0.1068
 4930SOL     H240990   3.699   0.340   0.121  0.2125  0.9900  1.1539
 4931SOL    OH240991   1.451   4.614   6.240  0.0289  0.4178  0.0507
 4931SOL     H140992   1.480   4.646   6.155  2.0540  1.7106  1.2027
 4931SOL     H240993   1.522   4.558   6.270 -0.0210  1.1178  1.5238
 4932SOL    OH240994   2.700   5.488   7.586  0.0718 -0.5587  0.1785
 4932SOL     H140995   2.783   5.536   7.588 -0.4219  0.2723  0.8538
 4932SOL     H240996   2.664   5.507   7.499  1.1729 -1.9433 -0.6009
 4933SOL    OH240997   3.332   3.869   7.748 -0.1369 -0.0558  0.0925
 4933SOL     H140998   3.291   3.886   7.833  0.1248  0.9250  0.0304
 4933SOL     H240999   3.300   3.940   7.692  0.1728 -0.3517 -0.4595
 4934SOL    OH241000   7.544   2.001   0.937  0.4219 -0.3441 -0.4275
 4934SOL     H141001   7.488   2.052   0.996 -0.6734 -0.3665 -1.4273
 4934SOL     H241002   7.571   1.926   0.989 -0.7722 -0.5113 -0.0313
 4935SOL    OH241003   3.360   1.905   2.462 -0.2291  0.3193  0.0960
 4935SOL     H141004   3.351   1.826   2.409  0.7540  1.7226 -2.2437
 4935SOL     H241005   3.439   1.948   2.428  1.0099  0.8137  3.3473
 4936SOL    OH241006   5.858   7.877   6.702  0.3297  0.8357 -0.1273
 4936SOL     H141007   5.927   7.829   6.747 -0.5154 -0.0463  0.2599
 4936SOL     H241008   5.903   7.948   6.656  1.7030 -0.7495 -1.2814
 4937SOL    OH241009   2.446   0.347   7.785 -0.3280  0.2936 -0.7350
 4937SOL     H141010   2.385   0.383   7.720  0.6288  2.2064 -0.6139
 4937SOL     H241011   2.532   0.376   7.755  0.2692 -0.1213  0.5495
 4938SOL    OH241012   0.308  -0.013   0.681 -0.0438  0.1666  0.1073
 4938SOL     H141013   0.391   0.034   0.670 -0.4254  1.0314  0.8241
 4938SOL     H241014   0.291  -0.009   0.775 -0.4010 -0.8730  0.0829
 4939SOL    OH241015   4.074   5.170   0.158  0.3459 -0.1704  0.7225
 4939SOL     H141016   4.013   5.226   0.110 -0.4244 -1.7746 -0.1993
 4939SOL     H241017   4.031   5.153   0.242  0.6227  0.6637  1.0431
 4940SOL    OH241018   2.229   6.948   7.343  0.2365 -0.1137  0.0257
 4940SOL     H141019   2.206   7.019   7.284 -1.8617 -1.6355 -1.0507
 4940SOL     H241020   2.235   6.871   7.286  1.0293 -1.0799  1.3877
 4941SOL    OH241021   7.935   3.332   6.828  0.4245  0.1228 -0.3676
 4941SOL     H141022   7.976   3.389   6.893  1.5277 -0.7210 -0.3075
 4941SOL     H241023   7.849   3.313   6.864  0.1261  1.5676 -0.2854
 4942SOL    OH241024   1.788   0.861   7.909 -0.1388  0.0605  0.2151
 4942SOL     H141025   1.726   0.788   7.899  1.3930 -1.2286 -0.1267
 4942SOL     H241026   1.757   0.927   7.847 -0.9589 -0.7217 -0.2331
 4943SOL    OH241027   1.794   5.236   0.153  0.5470  0.0468  0.4195
 4943SOL     H141028   1.803   5.167   0.219  0.1341 -1.2682 -0.8711
 4943SOL     H241029   1.832   5.198   0.073 -2.7009 -0.0006 -1.2154
 4944SOL    OH241030   0.386   2.119   0.174 -0.3960  0.6163 -0.1419
 4944SOL     H141031   0.292   2.127   0.188 -0.4215  2.6080 -1.2987
 4944SOL     H241032   0.401   2.154   0.086  1.4492  0.5774  0.1258
 4945SOL    OH241033   1.850   1.421   2.603 -0.4477  0.7127  0.4137
 4945SOL     H141034   1.872   1.480   2.531 -0.6893  0.7296  0.3539
 4945SOL     H241035   1.847   1.478   2.680 -0.1587  0.6895  0.4439
 4946SOL    OH241036   6.916   7.511   7.807 -0.2332 -0.3502 -0.2978
 4946SOL     H141037   6.956   7.535   7.891  0.0704  0.0947 -0.5623
 4946SOL     H241038   6.988   7.521   7.743 -1.6064  3.9263 -1.3499
 4947SOL    OH241039   5.672   5.682   8.236 -0.4888 -0.5865 -0.2786
 4947SOL     H141040   5.684   5.747   8.305  0.3997 -0.4130 -0.5900
 4947SOL     H241041   5.741   5.618   8.250  0.3610 -0.0012 -1.6185
 4948SOL    OH241042   7.715   6.430   1.660 -0.1459 -0.0466  0.2381
 4948SOL     H141043   7.687   6.373   1.732  0.7661  0.5694  1.0923
 4948SOL     H241044   7.806   6.405   1.643 -0.6351 -0.8427 -1.3558
 4949SOL    OH241045   1.577   2.943   0.993  0.0129 -0.3078  0.0087
 4949SOL     H141046   1.611   2.956   0.904 -1.8424 -3.9923 -1.3842
 4949SOL     H241047   1.482   2.950   0.983 -0.0729  2.3006  2.3396
 4950SOL    OH241048   3.487   0.249   1.225 -0.2106 -0.4139  0.5633
 4950SOL     H141049   3.507   0.295   1.306  0.1278 -1.4672  1.0840
 4950SOL     H241050   3.391   0.252   1.219 -0.3100 -1.2916  1.5764
 4951SOL    OH241051   1.938   1.535   2.349  0.1692  0.3883 -0.0414
 4951SOL     H141052   1.925   1.474   2.277 -1.7052  0.5102  0.1655
 4951SOL     H241053   1.967   1.616   2.307  2.9489 -0.6662 -0.2921
 4952SOL    OH241054   2.379   3.832   6.204 -0.5699  0.0313 -0.0129
 4952SOL     H141055   2.356   3.739   6.194 -1.6542  0.3395 -0.3913
 4952SOL     H241056   2.360   3.871   6.119 -0.7319  0.7273  0.3377
 4953SOL    OH241057   3.309   6.061   1.804  0.3374  0.0844  0.0714
 4953SOL     H141058   3.222   6.079   1.840  0.9517  1.4538  0.9242
 4953SOL     H241059   3.299   5.978   1.758 -2.4787  2.1884 -3.4086
 4954SOL    OH241060   7.080   3.166   0.467 -0.1131 -0.5164 -0.3884
 4954SOL     H141061   6.985   3.170   0.457 -0.1128  0.7432  0.0250
 4954SOL     H241062   7.113   3.233   0.407  0.4886 -0.7071 -0.2749
 4955SOL    OH241063   1.339   5.176   6.706 -0.1201 -0.3025  0.0330
 4955SOL     H141064   1.339   5.155   6.800 -0.3772 -1.8045 -0.2918
 4955SOL     H241065   1.421   5.141   6.673 -0.2399 -0.1811 -0.3998
 4956SOL    OH241066   6.429   4.963   7.491  0.3206 -0.0324  0.2178
 4956SOL     H141067   6.337   4.963   7.466  0.0082  0.0113  1.3362
 4956SOL     H241068   6.474   4.917   7.421 -0.6392 -0.6039 -0.0203
 4957SOL    OH241069   2.262   3.969   7.539 -0.6641  0.2996  0.4345
 4957SOL     H141070   2.229   3.912   7.608  0.6036  0.5038  1.2268
 4957SOL     H241071   2.248   4.058   7.572 -0.5142  0.4083  0.2056
 4958SOL    OH241072   5.466   6.804   0.943  0.0317 -0.2665  0.3905
 4958SOL     H141073   5.452   6.771   0.854  1.9483 -0.9713  0.3270
 4958SOL     H241074   5.390   6.859   0.960  1.1386  2.4537 -2.8713
 4959SOL    OH241075   4.233   5.381   0.350 -0.5468  0.2604  0.0815
 4959SOL     H141076   4.278   5.448   0.298  0.8722  0.8527  2.0294
 4959SOL     H241077   4.141   5.406   0.346 -0.1331  1.8580  0.0933
 4960SOL    OH241078   6.689   0.864   6.523 -0.5861  0.5443  0.0100
 4960SOL     H141079   6.720   0.921   6.593 -1.3818  0.6559  0.2846
 4960SOL     H241080   6.753   0.874   6.453  0.3353  0.2633  0.8023
 4961SOL    OH241081   0.035   3.881   7.374 -0.0456 -0.1515  0.4219
 4961SOL     H141082   0.120   3.849   7.344 -1.1208 -1.0560 -1.8362
 4961SOL     H241083   0.018   3.959   7.320 -0.1542  0.6823  1.6399
 4962SOL    OH241084   6.620   7.390   1.783 -0.2207  0.3527  0.3579
 4962SOL     H141085   6.700   7.384   1.732 -0.2832  2.0010  0.0547
 4962SOL     H241086   6.562   7.324   1.744  1.2083 -1.3544  1.0380
 4963SOL    OH241087   7.814   4.228   1.483  0.2694  0.0179  0.0946
 4963SOL     H141088   7.732   4.268   1.511  0.6246  1.3068 -0.6546
 4963SOL     H241089   7.801   4.206   1.391 -0.5089 -3.1923  0.9189
 4964SOL    OH241090   0.429   4.096   7.621 -0.2525 -0.0081  0.5171
 4964SOL     H141091   0.390   4.010   7.634 -1.8054  0.9476  2.3441
 4964SOL     H241092   0.384   4.131   7.544 -0.6144 -0.2440  0.6203
 4965SOL    OH241093   1.008   0.353   8.194  0.4055  0.3616  0.4239
 4965SOL     H141094   0.991   0.419   8.262 -1.0071  2.3116 -1.7627
 4965SOL     H241095   1.054   0.283   8.240 -0.8227  1.4704  3.4788
 4966SOL    OH241096   5.225   0.711   7.006  0.1237  0.2035 -0.9427
 4966SOL     H141097   5.178   0.634   6.972 -0.1588 -0.2349  0.3885
 4966SOL     H241098   5.158   0.761   7.053  0.5544  0.6457 -0.7932
 4967SOL    OH241099   4.125   6.543   6.825  0.4194  0.5927 -0.6937
 4967SOL     H141100   4.060   6.603   6.861  1.3387  1.8386 -1.0594
 4967SOL     H241101   4.198   6.547   6.887  0.4691 -0.1808 -0.6989
 4968SOL    OH241102   1.053   6.321   1.415  0.2982 -0.4435  0.4755
 4968SOL     H141103   1.056   6.409   1.378 -1.1720 -0.0800  1.1863
 4968SOL     H241104   1.003   6.270   1.352  1.8914 -0.9954 -0.3627
 4969SOL    OH241105   7.503   1.117   1.614 -0.1531 -0.2204 -0.3189
 4969SOL     H141106   7.453   1.198   1.603 -1.6559 -1.3736 -2.2007
 4969SOL     H241107   7.511   1.081   1.525  1.5713 -1.4966  0.3323
 4970SOL    OH241108   4.207   5.671   0.548  0.0088  0.2148  0.2769
 4970SOL     H141109   4.264   5.594   0.550 -0.7798 -0.3914 -0.4219
 4970SOL     H241110   4.249   5.733   0.608 -0.6281 -1.6563  2.7126
 4971SOL    OH241111   7.961   5.137   0.819  0.1956 -0.1973 -0.0527
 4971SOL     H141112   7.873   5.136   0.781 -0.0873 -1.3886  0.6173
 4971SOL     H241113   7.978   5.230   0.837 -0.2392  0.2337 -1.7123
 4972SOL    OH241114   5.743   4.369   8.006 -0.0230  0.3920 -0.4649
 4972SOL     H141115   5.805   4.320   8.059 -0.0912  0.1029 -0.6495
 4972SOL     H241116   5.665   4.314   8.002 -0.0030  0.3882 -0.9022
 4973SOL    OH241117   5.957   7.897   1.958 -0.8670 -0.5750  0.1764
 4973SOL     H141118   5.969   7.819   2.012 -1.7024 -1.3903 -0.8046
 4973SOL     H241119   5.999   7.876   1.875 -1.0776  0.0246 -0.0876
 4974SOL    OH241120   4.007   2.172   6.253 -0.2018 -0.0328 -0.2810
 4974SOL     H141121   4.025   2.190   6.161  2.1793  0.6848  0.2913
 4974SOL     H241122   4.001   2.076   6.258 -0.5305 -0.0675 -1.1941
 4975SOL    OH241123   5.131   6.407   1.009 -0.1915  0.1928  0.1021
 4975SOL     H141124   5.184   6.460   0.950  1.2648 -2.5516 -1.1582
 4975SOL     H241125   5.048   6.397   0.963  0.9692 -2.0200 -1.6559
 4976SOL    OH241126   5.803   4.578   7.533  0.3721 -0.3281 -0.1698
 4976SOL     H141127   5.817   4.488   7.502  2.4061 -0.0369 -0.1546
 4976SOL     H241128   5.817   4.573   7.627 -2.9380 -0.6343  0.3784
 4977SOL    OH241129   7.009   3.560   7.987 -0.0699 -0.7510 -0.1925
 4977SOL     H141130   7.050   3.622   8.047 -0.0900 -1.1004  0.1810
 4977SOL     H241131   6.979   3.489   8.042 -0.2175 -1.0079 -0.6005
 4978SOL    OH241132   1.703   4.878   7.572  0.0576  0.0523  0.0130
 4978SOL     H141133   1.764   4.807   7.549 -3.3034 -3.2189  0.6696
 4978SOL     H241134   1.702   4.878   7.668 -0.2901  0.7489  0.0107
 4979SOL    OH241135   4.751   6.058   8.068  0.7563 -0.1066  0.5472
 4979SOL     H141136   4.752   5.963   8.062 -0.0059 -0.0266 -1.1517
 4979SOL     H241137   4.717   6.087   7.983  2.8262  1.7384  0.3073
 4980SOL    OH241138   0.175   0.114   8.041  0.2168  0.0800 -0.6296
 4980SOL     H141139   0.247   0.175   8.060  1.3051 -0.0385 -4.0413
 4980SOL     H241140   0.218   0.035   8.010 -1.3465 -0.8762 -0.4110
 4981SOL    OH241141   2.617   2.555   1.300 -0.5019  0.1143  1.0002
 4981SOL     H141142   2.605   2.617   1.373 -0.2297  1.3533  0.0148
 4981SOL     H241143   2.672   2.602   1.238  0.0377 -1.2874  0.3994
 4982SOL    OH241144   5.993   2.189   1.921  0.3599 -0.4063 -0.9790
 4982SOL     H141145   6.057   2.256   1.899  1.4027 -1.0707 -0.0606
 4982SOL     H241146   6.006   2.120   1.856  0.7573 -0.6468 -0.6503
 4983SOL    OH241147   3.101   7.514   6.450 -0.2555  0.1840 -0.5802
 4983SOL     H141148   3.116   7.603   6.483 -0.5494  0.5173 -1.3435
 4983SOL     H241149   3.047   7.472   6.517 -0.8319  0.8512 -0.6218
 4984SOL    OH241150   1.023   4.840   0.444  0.7198 -0.6937 -0.4201
 4984SOL     H141151   1.015   4.899   0.370  2.4593 -0.6806 -0.6160
 4984SOL     H241152   1.037   4.754   0.405 -0.2366 -0.9954 -0.1206
 4985SOL    OH241153   0.410   5.782   6.937  0.2647  0.0540  0.0215
 4985SOL     H141154   0.331   5.790   6.990  0.4705 -1.1285  0.5272
 4985SOL     H241155   0.422   5.868   6.898  0.7213  1.2885  2.7644
 4986SOL    OH241156   4.657   1.049   8.085 -0.0421  0.1927  0.2260
 4986SOL     H141157   4.634   1.018   8.173  1.4239 -1.4807  0.0398
 4986SOL     H241158   4.597   1.001   8.027 -0.1091  0.2909  0.2144
 4987SOL    OH241159   4.162   4.931   7.315  0.0315 -0.1488 -0.3834
 4987SOL     H141160   4.231   4.935   7.249  1.2997  1.7463  0.9869
 4987SOL     H241161   4.081   4.949   7.267  0.9327  1.1534 -1.4436
 4988SOL    OH241162   0.626   7.012   1.527 -0.6986 -0.2613  0.6638
 4988SOL     H141163   0.540   6.970   1.521 -0.5645 -0.4766  0.1886
 4988SOL     H241164   0.625   7.076   1.455 -0.3604 -0.4559  0.4855
 4989SOL    OH241165   1.771   4.597   7.846 -0.7086  0.1190 -0.5742
 4989SOL     H141166   1.838   4.557   7.901 -0.0456  2.7951  0.6710
 4989SOL     H241167   1.711   4.526   7.826  0.6614 -1.5849  1.1707
 4990SOL    OH241168   7.798   4.684   2.064  0.1050 -0.2290  0.0615
 4990SOL     H141169   7.774   4.764   2.110 -0.9488  0.2482 -1.2992
 4990SOL     H241170   7.770   4.614   2.123 -1.2254  0.3830  0.1711
 4991SOL    OH241171   7.758   6.125   7.445 -0.3721  0.3615 -0.2740
 4991SOL     H141172   7.826   6.132   7.511 -1.2274 -0.2735  0.6889
 4991SOL     H241173   7.746   6.215   7.412  1.8713  0.2545 -1.4424
 4992SOL    OH241174   6.858   5.199   8.026  0.0091  0.4540  0.5641
 4992SOL     H141175   6.844   5.159   7.940 -3.0061 -1.8433  2.0561
 4992SOL     H241176   6.937   5.156   8.059 -1.1607 -1.6899  0.6379
 4993SOL    OH241177   4.825   2.505   1.088 -0.5174  0.0802 -0.3967
 4993SOL     H141178   4.852   2.418   1.060  1.3658  1.1406 -1.9917
 4993SOL     H241179   4.859   2.564   1.020 -1.0952  2.1292  1.0415
 4994SOL    OH241180   0.679   2.371   7.950 -0.8611  0.0935  0.3937
 4994SOL     H141181   0.587   2.372   7.976 -0.8314 -0.1949  0.5124
 4994SOL     H241182   0.718   2.302   8.004 -0.1245  1.6760  1.9276
 4995SOL    OH241183   4.324   6.316   8.234  0.1709 -0.3879  0.0480
 4995SOL     H141184   4.258   6.386   8.239  1.9050  1.1830  1.6802
 4995SOL     H241185   4.407   6.362   8.227  1.3416 -2.2972  1.1153
 4996SOL    OH241186   0.284   5.242   0.306 -0.5373 -0.1390 -0.3926
 4996SOL     H141187   0.241   5.160   0.281 -1.7874 -0.6748  3.1434
 4996SOL     H241188   0.348   5.216   0.373  0.8256  1.4734 -1.0332
 4997SOL    OH241189   7.690   2.336   7.751 -0.4415 -0.1898  1.1463
 4997SOL     H141190   7.735   2.373   7.827  2.0207 -4.5253  2.0340
 4997SOL     H241191   7.750   2.268   7.719 -1.8738  0.8261 -4.1045
 4998SOL    OH241192   2.941   3.977   2.465 -0.2772 -0.0146  0.1803
 4998SOL     H141193   2.864   3.922   2.453 -0.5213  0.2672  0.4279
 4998SOL     H241194   2.930   4.015   2.553  1.2140 -1.6447  1.0940
 4999SOL    OH241195   5.463   7.165   1.628 -1.0189  0.9494 -0.7077
 4999SOL     H141196   5.546   7.194   1.589 -0.9998  1.4860 -0.2850
 4999SOL     H241197   5.403   7.159   1.554 -0.2357 -0.7984 -1.2052
 5000SOL    OH241198   6.535   7.099   0.318  0.3831  0.1451  0.0827
 5000SOL     H141199   6.445   7.108   0.349  0.1045 -0.9243 -0.3930
 5000SOL     H241200   6.589   7.119   0.394 -0.2604  0.0239  0.5728
 5001SOL    OH241201   5.730   5.597   0.879 -0.0794  0.5013  0.0281
 5001SOL     H141202   5.684   5.586   0.796 -0.8531  1.9959  0.2414
 5001SOL     H241203   5.823   5.593   0.856 -0.3006  0.0335 -0.7809
 5002SOL    OH241204   6.629   5.193   0.248 -0.6144 -0.2502 -0.6528
 5002SOL     H141205   6.653   5.190   0.156  2.2576 -0.7762  0.0598
 5002SOL     H241206   6.648   5.105   0.280 -1.8021 -0.1357  0.3929
 5003SOL    OH241207   1.449   0.714   6.509  0.1998 -0.4668  0.2937
 5003SOL     H141208   1.358   0.693   6.527  0.1288 -0.6989 -0.3614
 5003SOL     H241209   1.499   0.642   6.548  0.0346 -1.0621 -0.5897
 5004SOL    OH241210   5.950   0.269   0.076  0.1715  0.9620 -0.1271
 5004SOL     H141211   6.009   0.258   0.001  0.4611 -1.4668  0.4165
 5004SOL     H241212   5.909   0.183   0.087 -0.4085  1.4941  2.0716
 5005SOL    OH241213   3.292   3.236   0.061 -0.0698  0.7171 -0.3610
 5005SOL     H141214   3.373   3.196   0.028  0.6409 -1.2187  3.4451
 5005SOL     H241215   3.321   3.320   0.097  0.0116  0.5876 -0.1260
 5006SOL    OH241216   7.561   1.498   1.116  0.7889  0.3802  0.4241
 5006SOL     H141217   7.545   1.521   1.025 -1.0691 -1.8557  0.1203
 5006SOL     H241218   7.632   1.434   1.112  1.1699  0.7929  0.6045
 5007SOL    OH241219   6.133   2.862   7.082  0.2113 -1.2931  0.0219
 5007SOL     H141220   6.138   2.938   7.140  0.7396 -1.4546  0.1928
 5007SOL     H241221   6.176   2.889   7.001  0.3203 -1.3770  0.0509
 5008SOL    OH241222   0.880   0.972   7.370 -0.4947 -0.1429 -0.2626
 5008SOL     H141223   0.942   1.045   7.357 -0.1154 -0.1866  1.2760
 5008SOL     H241224   0.896   0.915   7.295  0.6726  0.3296 -0.3980
 5009SOL    OH241225   7.754   6.219   1.826 -0.0211  0.5942  0.3942
 5009SOL     H141226   7.743   6.129   1.855 -2.6942  0.3949 -1.0343
 5009SOL     H241227   7.840   6.221   1.784  0.2207 -1.1850  0.7883
 5010SOL    OH241228   6.974   2.880   8.266  0.1727 -0.2976  0.5336
 5010SOL     H141229   6.908   2.886   8.197 -0.1451 -1.2510  0.7512
 5010SOL     H241230   7.017   2.966   8.266  0.4053 -0.4060 -1.0773
 5011SOL    OH241231   4.309   2.219   6.869 -0.2024  0.3098 -0.1152
 5011SOL     H141232   4.386   2.208   6.925  0.5515  1.5508 -0.8936
 5011SOL     H241233   4.344   2.246   6.784 -1.4065 -0.4709 -0.8784
 5012SOL    OH241234   2.976   4.061   7.481 -0.2166  0.4632  0.0434
 5012SOL     H141235   2.937   3.973   7.475 -1.4228  1.0956 -1.8193
 5012SOL     H241236   2.901   4.120   7.480  0.5938  1.5326  1.4299
 5013SOL    OH241237   0.255   5.429   1.165  0.7045  0.0728 -0.1229
 5013SOL     H141238   0.286   5.517   1.188  0.6167 -0.0148  0.3257
 5013SOL     H241239   0.208   5.399   1.243 -0.0838  0.0051 -0.6129
 5014SOL    OH241240   1.990   4.725   1.140 -0.2963 -0.1036 -0.5689
 5014SOL     H141241   2.059   4.699   1.079 -0.0937  0.9347 -0.7968
 5014SOL     H241242   1.947   4.643   1.164  1.4637 -0.8720  0.1183
 5015SOL    OH241243   6.007   0.223   1.921 -0.4042  0.4432  0.2540
 5015SOL     H141244   6.008   0.130   1.946 -2.4125 -0.0386 -1.3734
 5015SOL     H241245   5.914   0.244   1.912  0.1214  1.5580 -3.2199
 5016SOL    OH241246   7.044   4.860   0.034  0.1062  0.2573 -0.1855
 5016SOL     H141247   7.051   4.936   0.092 -0.0235 -0.0974  0.2954
 5016SOL     H241248   7.066   4.895  -0.052 -0.4061  0.9448 -0.0498
 5017SOL    OH241249   1.648   3.002   1.677 -0.7190  0.2867 -0.2228
 5017SOL     H141250   1.618   3.086   1.642 -0.6748  0.6522  0.6039
 5017SOL     H241251   1.722   3.025   1.733 -1.4654 -0.1741  0.9488
 5018SOL    OH241252   4.048   5.888   7.694 -0.1593 -0.3081  1.0813
 5018SOL     H141253   3.987   5.953   7.660  1.0030  1.3930  2.1665
 5018SOL     H241254   4.006   5.804   7.677 -2.2051  0.7735  0.6567
 5019SOL    OH241255   7.051   0.039   7.414 -0.4838 -0.0795 -0.2341
 5019SOL     H141256   7.036   0.088   7.495  1.3934  1.5084 -0.8176
 5019SOL     H241257   7.119  -0.025   7.437 -0.1980  0.1401 -0.4710
 5020SOL    OH241258   4.453   7.648   6.826  0.8263  0.6557 -0.2272
 5020SOL     H141259   4.464   7.711   6.896  1.6006 -1.4244  1.5730
 5020SOL     H241260   4.419   7.570   6.869  0.4587 -0.3635 -2.3086
 5021SOL    OH241261   2.380   0.996   7.620  0.2683 -0.0775  0.0531
 5021SOL     H141262   2.346   1.030   7.536 -1.7524  2.9016  1.9753
 5021SOL     H241263   2.437   1.066   7.652  1.9052 -1.6706  0.6999
 5022SOL    OH241264   6.585   0.069   7.420  0.3209 -0.3192 -0.4583
 5022SOL     H141265   6.559   0.021   7.342 -0.3218  1.4193 -1.3394
 5022SOL     H241266   6.609   0.156   7.388  0.6029  0.2390  1.2110
 5023SOL    OH241267   0.945   0.664   0.353  0.2698 -0.0891  0.0017
 5023SOL     H141268   0.992   0.591   0.394 -1.5424 -0.9187  0.6998
 5023SOL     H241269   0.889   0.698   0.422 -1.1069  0.0214 -1.1364
 5024SOL    OH241270   4.041   5.519   7.353 -0.2372  0.0993 -0.0145
 5024SOL     H141271   4.035   5.447   7.290 -0.3012 -0.6512  0.8356
 5024SOL     H241272   4.127   5.507   7.394 -0.2908  0.4438  0.1969
 5025SOL    OH241273   2.565   1.846   1.336  0.4104 -0.8431 -0.0134
 5025SOL     H141274   2.542   1.887   1.419  0.0290 -1.0952  0.0037
 5025SOL     H241275   2.483   1.847   1.285  0.6623 -0.6017 -0.4231
 5026SOL    OH241276   5.958   2.366   6.741  0.2418  0.3904  0.4233
 5026SOL     H141277   5.994   2.307   6.808  0.1205 -2.6060 -2.0495
 5026SOL     H241278   5.882   2.405   6.783  0.1771 -1.3965  2.0711
 5027SOL    OH241279   6.400   6.357   1.334  0.3132  0.5203 -0.1770
 5027SOL     H141280   6.353   6.293   1.388  0.3065  1.1416  0.5452
 5027SOL     H241281   6.334   6.387   1.271 -0.0788  0.8967  0.4094
 5028SOL    OH241282   7.342   6.464   6.677 -0.6291  0.2020  0.0227
 5028SOL     H141283   7.341   6.433   6.768  0.7253 -1.0526 -0.3655
 5028SOL     H241284   7.323   6.386   6.625 -2.3798  1.1036 -0.7541
 5029SOL    OH241285   7.204   7.299   1.020  0.2390  0.2536 -0.1803
 5029SOL     H141286   7.115   7.323   1.043  0.4866  1.4455 -0.4523
 5029SOL     H241287   7.215   7.329   0.929  0.9846  0.3134 -0.0795
 5030SOL    OH241288   6.913   0.788   1.558 -0.5633  0.1242  0.1647
 5030SOL     H141289   6.841   0.830   1.605 -0.7904 -2.5243  2.2571
 5030SOL     H241290   6.991   0.806   1.610 -0.4635 -0.9737  0.4046
 5031SOL    OH241291   1.164   0.737   7.249 -0.1161 -0.2229 -0.0483
 5031SOL     H141292   1.114   0.690   7.316 -1.6756  1.5839  0.1115
 5031SOL     H241293   1.097   0.769   7.188  0.7752  2.7977  0.5128
 5032SOL    OH241294   7.795   6.968   7.477  0.2663 -0.1507  0.0025
 5032SOL     H141295   7.864   6.903   7.491  0.4582 -0.0678 -0.5650
 5032SOL     H241296   7.828   7.046   7.522  0.6169 -0.0629 -0.4045
 5033SOL    OH241297   5.286   3.361   1.868 -0.2759 -0.6710  0.0447
 5033SOL     H141298   5.255   3.441   1.827 -0.0771 -1.7788 -2.3216
 5033SOL     H241299   5.361   3.334   1.815  1.0294 -1.2610  2.1196
 5034SOL    OH241300   0.804   0.038   0.087  0.4552  0.3758  0.1892
 5034SOL     H141301   0.859   0.056   0.163 -0.7038  0.2410  1.0549
 5034SOL     H241302   0.863   0.051   0.012  1.7791 -0.1854  1.1213
 5035SOL    OH241303   7.318   1.062   1.295 -0.1617 -0.2851  0.0705
 5035SOL     H141304   7.399   1.082   1.341  0.0031 -0.3137 -0.2113
 5035SOL     H241305   7.328   0.971   1.266 -0.9302 -0.8157  1.4071
 5036SOL    OH241306   3.571   5.246   7.869  0.0174 -0.2533  0.6839
 5036SOL     H141307   3.621   5.279   7.944  0.8772  0.2754 -0.1145
 5036SOL     H241308   3.489   5.215   7.907  0.0988  0.7744  1.7489
 5037SOL    OH241309   2.288   2.709   7.451 -0.1007  0.0714  1.0641
 5037SOL     H141310   2.314   2.637   7.509 -1.1827 -0.1702  1.2514
 5037SOL     H241311   2.218   2.672   7.397  0.6966  0.3881 -0.1981
 5038SOL    OH241312   3.171   5.571   1.768 -0.6826 -0.5966  0.0000
 5038SOL     H141313   3.171   5.476   1.781  2.2305 -0.6756 -0.1992
 5038SOL     H241314   3.170   5.582   1.672 -0.4045 -0.4337  0.0163
 5039SOL    OH241315   5.924   6.424   6.454  0.4307  0.4333 -0.3999
 5039SOL     H141316   5.995   6.383   6.404  1.5110 -0.3757  1.7042
 5039SOL     H241317   5.900   6.358   6.519  0.3429  2.1041  1.3185
 5040SOL    OH241318   7.610   6.258   6.424  0.2168  0.0584  0.3147
 5040SOL     H141319   7.588   6.221   6.509 -0.3407 -1.2649 -0.3883
 5040SOL     H241320   7.704   6.240   6.413 -0.2818 -2.2587 -0.5250
 5041SOL    OH241321   2.717   1.244   0.704  0.1635  0.2820 -0.3773
 5041SOL     H141322   2.706   1.183   0.630 -1.1281 -2.2713  1.8433
 5041SOL     H241323   2.724   1.187   0.781  0.2780  2.9260  1.6276
 5042SOL    OH241324   5.940   5.187   7.940 -0.5081 -0.4835  0.1915
 5042SOL     H141325   5.894   5.107   7.913  0.2367 -0.8614  0.0321
 5042SOL     H241326   5.891   5.217   8.017 -0.9317 -0.9648  0.1152
 5043SOL    OH241327   2.136   0.806   6.567  0.0037 -0.1405  0.2718
 5043SOL     H141328   2.198   0.823   6.638  0.2939  1.5964 -0.3724
 5043SOL     H241329   2.158   0.871   6.500 -0.4248 -1.5839 -1.3134
 5044SOL    OH241330   6.358   4.301   6.840 -0.6371 -0.1164 -0.4236
 5044SOL     H141331   6.400   4.378   6.876  0.8631 -0.5671 -1.1394
 5044SOL     H241332   6.370   4.309   6.745 -1.4520 -0.6526 -0.5759
 5045SOL    OH241333   2.468   1.984   1.843  0.2216  0.3073  0.0806
 5045SOL     H141334   2.498   1.962   1.755  1.4187  0.0721  0.5488
 5045SOL     H241335   2.500   1.914   1.898 -0.8041  0.2915  0.6646
 5046SOL    OH241336   1.418   6.601   2.297 -0.2051  0.2781 -0.4458
 5046SOL     H141337   1.376   6.523   2.260  0.0043  0.1246 -0.3628
 5046SOL     H241338   1.510   6.576   2.308  0.6406  1.6964 -3.6672
 5047SOL    OH241339   5.017   1.785   7.978  0.3554 -0.2973  0.9774
 5047SOL     H141340   5.060   1.715   7.928  2.8306  0.7176  1.6208
 5047SOL     H241341   4.958   1.826   7.915  0.2709 -1.7467  0.0753
 5048SOL    OH241342   0.283   6.403   1.883 -0.2468 -0.3879 -0.3633
 5048SOL     H141343   0.242   6.317   1.894 -0.0247 -0.3570  0.7774
 5048SOL     H241344   0.370   6.383   1.847 -0.2807 -0.6232 -0.3180
 5049SOL    OH241345   1.800   7.776   8.040 -0.8713  0.5117  0.2784
 5049SOL     H141346   1.746   7.847   8.003 -0.2453  1.0604  0.4077
 5049SOL     H241347   1.889   7.812   8.041 -0.6564 -0.0421  0.9658
 5050SOL    OH241348   3.767   1.840   7.358 -0.7306 -0.3076  0.5503
 5050SOL     H141349   3.752   1.853   7.452  1.5467  0.3686  0.8468
 5050SOL     H241350   3.764   1.928   7.321  0.8661 -0.3111  0.3892
 5051SOL    OH241351   5.357   1.421   8.191  0.6537  0.3567  0.0962
 5051SOL     H141352   5.313   1.361   8.131  0.8993 -1.4567  1.6512
 5051SOL     H241353   5.287   1.450   8.250  0.6178  1.2697 -0.3972
 5052SOL    OH241354   7.139   0.308   0.679  0.1196 -0.4124  0.3857
 5052SOL     H141355   7.151   0.376   0.745  1.1229  0.2894 -0.5075
 5052SOL     H241356   7.226   0.270   0.667  0.0763 -0.1025 -0.9887
 5053SOL    OH241357   7.858   5.414   0.119  0.4772  0.5428  0.1537
 5053SOL     H141358   7.899   5.433   0.035 -2.3981  1.7317 -1.0592
 5053SOL     H241359   7.841   5.320   0.116 -0.3279  0.7104 -0.9521
 5054SOL    OH241360   1.164   3.395   2.272  0.2117 -0.1130  0.0387
 5054SOL     H141361   1.224   3.383   2.345  2.1268 -0.7126 -1.6017
 5054SOL     H241362   1.115   3.312   2.268 -0.4018  0.1962  1.0762
 5055SOL    OH241363   5.730   2.614   0.952  0.0006 -0.1835 -0.3409
 5055SOL     H141364   5.805   2.569   0.913  0.2157 -1.8208  1.8238
 5055SOL     H241365   5.725   2.698   0.907  2.9338 -0.1917 -0.7633
 5056SOL    OH241366   2.602   3.027   1.134  0.0146 -0.8422 -0.4444
 5056SOL     H141367   2.543   3.099   1.157  0.0925 -0.9619  0.1614
 5056SOL     H241368   2.629   3.045   1.044 -0.7725 -0.6650 -0.6501
 5057SOL    OH241369   2.085   1.087   1.486  0.4698 -0.0120 -0.1056
 5057SOL     H141370   2.157   1.080   1.423 -1.0626  1.2827 -2.0535
 5057SOL     H241371   2.011   1.043   1.443 -0.3595  0.0908  1.1942
 5058SOL    OH241372   1.694   1.254   1.517 -0.4661  0.9350  0.4127
 5058SOL     H141373   1.715   1.200   1.441 -2.1872 -2.1767  2.0386
 5058SOL     H241374   1.777   1.260   1.565  0.1097  1.0644 -0.5778
 5059SOL    OH241375   7.803   2.383  -0.019 -0.2381  0.2376 -0.0762
 5059SOL     H141376   7.811   2.289  -0.037 -1.4549  0.2622 -0.8083
 5059SOL     H241377   7.748   2.388   0.059 -2.0526  0.3817 -1.3155
 5060SOL    OH241378   1.889   1.338   2.150  0.6153 -0.5782  0.0680
 5060SOL     H141379   1.974   1.351   2.107  1.2433 -2.3077  0.7373
 5060SOL     H241380   1.845   1.272   2.097 -1.7441  2.6558 -2.2029
 5061SOL    OH241381   5.152   2.169   7.765  0.1660  0.1452  0.4634
 5061SOL     H141382   5.078   2.132   7.814  0.1141  0.8920  0.9528
 5061SOL     H241383   5.227   2.115   7.792  0.1286  0.5117  1.3269
 5062SOL    OH241384   6.668   5.251   7.018 -0.1474  0.1869 -0.3096
 5062SOL     H141385   6.710   5.264   6.933  0.4537 -0.1202 -0.0632
 5062SOL     H241386   6.740   5.228   7.076 -0.5359  0.5684  0.3222
 5063SOL    OH241387   0.527   0.136   6.876 -0.6052  0.1019  0.1101
 5063SOL     H141388   0.489   0.143   6.788 -1.0838 -2.2342  0.1128
 5063SOL     H241389   0.454   0.160   6.934 -2.0739 -3.9807  0.0928
 5064SOL    OH241390   2.888   2.631   8.019  0.2379 -0.2273  0.4271
 5064SOL     H141391   2.930   2.576   7.952  0.2591  0.0463  0.2175
 5064SOL     H241392   2.811   2.667   7.976 -0.6722 -1.3812  1.0616
 5065SOL    OH241393   1.377   4.132   2.279  0.1482  0.4282 -0.3493
 5065SOL     H141394   1.402   4.149   2.188  0.9849  1.8002  0.1146
 5065SOL     H241395   1.432   4.058   2.305 -0.6151 -0.4406 -1.1681
 5066SOL    OH241396   1.240   0.171   7.719 -0.3229  0.3261 -0.1981
 5066SOL     H141397   1.260   0.264   7.727 -0.7896  0.1785  3.2967
 5066SOL     H241398   1.325   0.127   7.719 -0.1363  0.6849 -0.9072
 5067SOL    OH241399   3.843   7.656   7.004 -0.3444  0.0089 -0.3698
 5067SOL     H141400   3.919   7.639   7.059  0.1142 -1.2967 -1.3662
 5067SOL     H241401   3.779   7.590   7.031 -1.3063  1.3619  0.7507
 5068SOL    OH241402   6.889   0.725   8.204  0.1818 -0.1662  0.4241
 5068SOL     H141403   6.892   0.800   8.144 -1.3414 -1.7554 -1.7072
 5068SOL     H241404   6.969   0.676   8.185 -0.3330 -0.7047 -0.3571
 5069SOL    OH241405   3.003   7.549   7.168  0.5441 -0.2115  0.2713
 5069SOL     H141406   2.967   7.606   7.236 -0.2177 -0.7753  0.3576
 5069SOL     H241407   3.096   7.543   7.188  0.7744  1.5767 -0.1633
 5070SOL    OH241408   1.119   2.941   7.933  0.1844  0.4132 -0.1763
 5070SOL     H141409   1.028   2.959   7.910  0.0812  1.1146  0.7273
 5070SOL     H241410   1.120   2.938   8.029  0.4667 -3.2347 -0.2539
 5071SOL    OH241411   7.350   1.069   7.249 -0.4145  0.1061 -0.3202
 5071SOL     H141412   7.260   1.036   7.254 -0.3490 -0.0693 -0.2949
 5071SOL     H241413   7.341   1.160   7.221 -0.5968  0.0673 -0.3856
 5072SOL    OH241414   3.510   2.150   5.545 -0.5674 -0.5467 -0.1532
 5072SOL     H141415   3.451   2.223   5.523 -1.6954 -0.7829  1.9947
 5072SOL     H241416   3.459   2.071   5.528 -0.5081 -0.7742  0.6920
 5073SOL    OH241417   6.444   0.960   6.465  0.1592  0.3064 -0.0590
 5073SOL     H141418   6.482   0.990   6.382 -0.3483 -0.4843 -0.5863
 5073SOL     H241419   6.515   0.910   6.506 -0.2929 -1.2379 -1.0805
 5074SOL    OH241420   0.783   2.109   1.306  0.6399 -0.2091  1.0604
 5074SOL     H141421   0.814   2.197   1.322  1.4042 -0.1103 -0.8071
 5074SOL     H241422   0.691   2.110   1.333  0.6825  1.1083  1.1495
 5075SOL    OH241423   1.852   6.513   0.588  0.3792 -0.4777 -0.0491
 5075SOL     H141424   1.774   6.456   0.591  0.0026  0.0719  1.0812
 5075SOL     H241425   1.917   6.462   0.541 -0.5143 -1.1542 -0.5691
 5076SOL    OH241426   1.602   7.696   2.122 -0.5070  0.1593  0.3693
 5076SOL     H141427   1.624   7.724   2.211 -1.2291  1.3482  0.1968
 5076SOL     H241428   1.682   7.712   2.072 -0.7916  1.6135  0.3537
 5077SOL    OH241429   0.930   2.588   7.149 -0.7560 -0.0508 -0.0374
 5077SOL     H141430   0.930   2.497   7.122 -2.4730 -0.1035  0.0885
 5077SOL     H241431   0.971   2.587   7.236  2.0431 -0.2609 -1.3036
 5078SOL    OH241432   7.423   5.369   1.927 -0.1417 -0.1099  0.5008
 5078SOL     H141433   7.377   5.350   1.845 -0.8154 -0.5045  0.9615
 5078SOL     H241434   7.369   5.434   1.971  0.9604  1.1634 -0.0053
 5079SOL    OH241435   7.298   6.627   0.871 -0.0181 -0.9127 -0.9028
 5079SOL     H141436   7.300   6.586   0.785 -0.0185  0.4284 -1.5408
 5079SOL     H241437   7.301   6.721   0.854 -3.5579 -0.4855  0.3668
 5080SOL    OH241438   3.043   7.324   6.977  0.2517  0.4738  0.0414
 5080SOL     H141439   3.087   7.402   7.010  0.7975 -0.2331  0.9852
 5080SOL     H241440   2.953   7.353   6.960  0.3380  1.1950  0.7959
 5081SOL    OH241441   6.264   2.277   5.954 -0.4176  0.4595 -0.0630
 5081SOL     H141442   6.290   2.188   5.929  0.0598  0.7069 -0.4654
 5081SOL     H241443   6.168   2.277   5.947 -0.3744  0.1621 -0.6874
 5082SOL    OH241444   3.597   4.442   5.832  0.0632 -0.2182  0.7966
 5082SOL     H141445   3.503   4.459   5.834  0.2681  0.8220  1.6173
 5082SOL     H241446   3.606   4.366   5.774 -0.9710  1.5776 -1.8231
 5083SOL    OH241447   4.500   4.329   7.540  0.9392  0.6099  0.3464
 5083SOL     H141448   4.571   4.336   7.604  1.2838  0.2377  0.0013
 5083SOL     H241449   4.525   4.256   7.484  0.5790  0.8623 -0.1451
 5084SOL    OH241450   3.988   4.994   8.104 -0.0523 -0.4676  0.2065
 5084SOL     H141451   4.023   4.996   8.194 -0.8306 -0.5446  0.5125
 5084SOL     H241452   3.895   4.975   8.115 -0.2235 -0.1037 -0.6063
 5085SOL    OH241453   2.398   4.410   1.905  0.3340 -0.1082  0.3296
 5085SOL     H141454   2.349   4.331   1.929 -1.0273  0.8787  0.8701
 5085SOL     H241455   2.447   4.433   1.985 -0.9970  0.8383  0.8910
 5086SOL    OH241456   1.054   1.317   7.681 -0.7183 -0.2315 -0.0332
 5086SOL     H141457   0.978   1.272   7.719 -1.3474  0.4154 -0.5001
 5086SOL     H241458   1.057   1.401   7.726 -2.0514  0.9318 -2.0496
 5087SOL    OH241459   0.280   3.859   8.046 -0.0176 -0.3340  0.0597
 5087SOL     H141460   0.341   3.831   8.115 -2.0919  0.2512  2.2059
 5087SOL     H241461   0.306   3.808   7.969  1.8266 -1.6447  1.4927
 5088SOL    OH241462   6.343   5.303   6.307  0.5657  0.2054 -0.5171
 5088SOL     H141463   6.325   5.392   6.277  2.3666  0.3867 -1.1179
 5088SOL     H241464   6.431   5.307   6.343  0.4981 -1.2468 -0.1378
 5089SOL    OH241465   2.724   3.087   6.127 -0.5984 -0.4293  0.1657
 5089SOL     H141466   2.727   2.991   6.119 -1.3282 -0.5533  1.2640
 5089SOL     H241467   2.679   3.103   6.210 -1.3588  0.8846 -0.4852
 5090SOL    OH241468   4.005   4.570   7.001 -0.0211  0.3379 -0.1080
 5090SOL     H141469   4.065   4.586   7.074  0.7292  0.3048 -0.7121
 5090SOL     H241470   3.919   4.566   7.042  0.7486 -3.4978  1.3115
 5091SOL    OH241471   3.733   1.576   6.907  0.3114  0.2388  0.2428
 5091SOL     H141472   3.748   1.503   6.967  0.0785  0.1272  0.1641
 5091SOL     H241473   3.741   1.654   6.962 -2.7191  0.0612  1.0290
 5092SOL    OH241474   0.999   2.553   6.685  0.2858 -0.0247 -0.0510
 5092SOL     H141475   1.016   2.636   6.730 -1.4614  0.2258  0.1551
 5092SOL     H241476   1.053   2.490   6.733  1.3225  0.8990  0.0421
 5093SOL    OH241477   6.257   0.054   0.086  0.3328  0.6021  0.1312
 5093SOL     H141478   6.333   0.110   0.101  1.5165 -0.6370 -1.0914
 5093SOL     H241479   6.292  -0.035   0.087 -1.5728 -0.1750  2.3381
 5094SOL    OH241480   3.762   6.608   2.543 -0.1421  0.0992 -0.0676
 5094SOL     H141481   3.837   6.634   2.596  0.2756  1.7256 -1.3944
 5094SOL     H241482   3.705   6.685   2.543 -0.9234 -0.4701 -0.5904
 5095SOL    OH241483   6.406   2.716   1.240 -0.5809  0.1727  0.3168
 5095SOL     H141484   6.417   2.811   1.228 -2.1248  0.4050  0.6545
 5095SOL     H241485   6.437   2.699   1.329 -1.7173  0.6092  0.8021
 5096SOL    OH241486   4.899   3.610   1.502  0.3311  0.0309 -0.2483
 5096SOL     H141487   4.950   3.691   1.495  1.0302 -0.5229 -1.7042
 5096SOL     H241488   4.964   3.541   1.509 -0.2363 -0.5579 -0.7476
 5097SOL    OH241489   6.698   2.386   6.292  0.0925  0.0285 -0.1810
 5097SOL     H141490   6.622   2.427   6.334 -0.4848 -1.3471  0.1463
 5097SOL     H241491   6.749   2.460   6.258 -0.9512  1.0127  0.3371
 5098SOL    OH241492   3.478   3.375   6.576  0.1970 -0.4803 -0.4811
 5098SOL     H141493   3.426   3.343   6.502 -2.0045 -1.8420  1.5799
 5098SOL     H241494   3.434   3.456   6.603  0.9608 -0.0132 -0.6444
 5099SOL    OH241495   2.901   7.034   0.059  0.5410 -0.0124 -0.2467
 5099SOL     H141496   2.892   7.129   0.056 -3.4666 -0.3151 -1.2154
 5099SOL     H241497   2.924   7.009  -0.030 -0.9016 -0.0859 -0.6192
 5100SOL    OH241498   5.219   3.010   6.550 -0.5433 -0.3649  0.7363
 5100SOL     H141499   5.148   3.016   6.485 -0.7937 -0.8382  0.9601
 5100SOL     H241500   5.268   3.091   6.540 -1.3873  0.1698  0.8837
 5101SOL    OH241501   5.307   2.576   8.046 -0.1175 -0.5824 -0.0559
 5101SOL     H141502   5.306   2.515   8.119 -3.8788  1.3458  1.6650
 5101SOL     H241503   5.274   2.525   7.972  0.1249 -1.5759  0.5144
 5102SOL    OH241504   1.198   2.225   7.485  0.4146  0.7031 -0.4096
 5102SOL     H141505   1.107   2.194   7.485  0.4786  0.5006  0.1432
 5102SOL     H241506   1.251   2.145   7.488  0.5978  0.8364 -0.0011
 5103SOL    OH241507   7.293   0.498   8.231 -0.4427 -0.4359  0.1080
 5103SOL     H141508   7.376   0.453   8.218  0.8416  1.8482  0.1887
 5103SOL     H241509   7.308   0.554   8.307 -2.5273 -1.0690  1.0154
 5104SOL    OH241510   0.272   1.842   6.847 -0.0675 -0.7259  0.1949
 5104SOL     H141511   0.253   1.923   6.895 -0.7237  0.3378 -1.7818
 5104SOL     H241512   0.365   1.826   6.864  0.4314  1.2246 -0.4713
 5105SOL    OH241513   5.059   7.599   6.909 -0.0861 -0.2547  0.0977
 5105SOL     H141514   5.043   7.652   6.987 -1.4867  3.5262 -2.5884
 5105SOL     H241515   5.149   7.617   6.885  0.1291 -0.8664  0.4443
 5106SOL    OH241516   5.822   6.301   1.036  0.5688 -0.1563 -0.3157
 5106SOL     H141517   5.875   6.275   1.112  0.4942 -0.4667 -0.3683
 5106SOL     H241518   5.813   6.221   0.985  0.0302 -0.1143 -0.2956
 5107SOL    OH241519   7.009   3.963   0.963 -0.5010 -0.1802 -0.0678
 5107SOL     H141520   6.979   3.878   0.931 -1.4480  0.3123 -0.5039
 5107SOL     H241521   7.010   3.953   1.059 -3.0445  0.0900  0.0254
 5108SOL    OH241522   4.050   3.954   7.818  0.4232 -0.5285 -0.3209
 5108SOL     H141523   4.140   3.975   7.842 -0.1639 -0.1493  1.6906
 5108SOL     H241524   3.999   4.029   7.850 -0.7592 -1.3465 -0.2670
 5109SOL    OH241525   1.231   2.332   2.054  0.3779 -0.0241 -0.2243
 5109SOL     H141526   1.280   2.279   2.117  0.0372 -0.5714 -0.4085
 5109SOL     H241527   1.287   2.334   1.976  0.7552  0.5706  0.0661
 5110SOL    OH241528   7.258   7.574   7.369  0.1247 -0.2878 -0.4651
 5110SOL     H141529   7.330   7.633   7.349 -0.1105 -0.2709 -1.2499
 5110SOL     H241530   7.179   7.621   7.342  0.0467 -1.6087 -2.6082
 5111SOL    OH241531   1.259   0.425   7.184  0.2725  0.0788  0.2093
 5111SOL     H141532   1.293   0.510   7.156  0.8239 -0.4775 -0.8583
 5111SOL     H241533   1.243   0.435   7.278  0.3503  1.3512  0.0929
 5112SOL    OH241534   2.214   2.229   6.788 -0.1227 -0.2689 -0.4725
 5112SOL     H141535   2.274   2.295   6.823 -1.8828 -0.4893  3.1321
 5112SOL     H241536   2.169   2.274   6.716  0.0989  1.8480  0.6743
 5113SOL    OH241537   1.753   6.532   8.187 -0.1048  0.0703 -0.2699
 5113SOL     H141538   1.749   6.458   8.247  1.8742  0.4498  0.3864
 5113SOL     H241539   1.772   6.493   8.102 -0.2866 -0.2654 -0.1557
 5114SOL    OH241540   5.438   7.568   5.806 -0.3266  0.2680 -0.0060
 5114SOL     H141541   5.383   7.603   5.736  0.5043 -0.4484 -1.0377
 5114SOL     H241542   5.376   7.539   5.873 -1.2178 -0.5713 -1.1699
 5115SOL    OH241543   7.648   4.080   0.986 -0.0429 -0.1692  0.7609
 5115SOL     H141544   7.618   3.989   0.984  0.7772 -0.4443  0.2732
 5115SOL     H241545   7.619   4.116   0.902  0.8345 -0.3952  0.3493
 5116SOL    OH241546   1.462   4.114   7.382  0.1452  0.5285  0.4896
 5116SOL     H141547   1.441   4.181   7.317 -0.2478  0.3679  0.4494
 5116SOL     H241548   1.386   4.055   7.382  0.7748 -0.3049  0.0258
 5117SOL    OH241549   4.080   3.530   0.857  0.4151 -0.2427 -0.4621
 5117SOL     H141550   4.085   3.542   0.762  0.1211 -0.0648 -0.4533
 5117SOL     H241551   4.165   3.491   0.880  1.4905  2.0559 -0.4419
 5118SOL    OH241552   6.801   1.224   2.619  0.3536 -0.2408 -0.4397
 5118SOL     H141553   6.877   1.234   2.561 -0.1832  2.2717 -0.7332
 5118SOL     H241554   6.730   1.197   2.561  0.3167  0.2219 -0.6045
 5119SOL    OH241555   7.700   6.692   7.330  0.3327 -0.0994 -0.1991
 5119SOL     H141556   7.758   6.616   7.334  0.1312 -0.1605  2.0399
 5119SOL     H241557   7.734   6.753   7.395 -0.1801  1.2703 -1.1708
 5120SOL    OH241558   5.998   3.580   1.293  0.0135  0.0545  0.3413
 5120SOL     H141559   5.959   3.591   1.206 -0.5829 -1.7241  0.3618
 5120SOL     H241560   6.090   3.603   1.281 -0.6538  2.7546 -0.0609
 5121SOL    OH241561   7.149   3.018   1.996  0.8843 -0.0803  0.3729
 5121SOL     H141562   7.080   3.029   2.061  0.2675 -1.1310 -0.0945
 5121SOL     H241563   7.117   2.949   1.938  1.4138  0.8761 -1.0779
 5122SOL    OH241564   4.440   6.328   5.839 -0.0469  0.9457  0.4083
 5122SOL     H141565   4.505   6.371   5.783 -1.0758  0.9804 -0.8025
 5122SOL     H241566   4.491   6.289   5.910  1.2456  1.2995 -0.3037
 5123SOL    OH241567   1.483   0.622   7.571  0.0259  0.1574  0.5053
 5123SOL     H141568   1.402   0.645   7.617 -0.5532 -1.4398  0.3019
 5123SOL     H241569   1.511   0.540   7.612 -0.7607 -1.5725 -2.3061
 5124SOL    OH241570   3.956   6.654   0.794  0.4870 -0.1497 -0.4105
 5124SOL     H141571   3.991   6.723   0.851  0.2427  1.0873 -1.7235
 5124SOL     H241572   4.034   6.611   0.758  0.6473  0.0994 -0.3601
 5125SOL    OH241573   1.557   1.892   1.072  0.0206  0.0090 -0.9954
 5125SOL     H141574   1.552   1.968   1.014  0.2826 -1.2099 -2.6726
 5125SOL     H241575   1.587   1.821   1.015  0.8662 -1.0992  0.7811
 5126SOL    OH241576   0.547   6.791   1.071  0.4913  0.1757 -0.7620
 5126SOL     H141577   0.597   6.725   1.023  2.6491  1.1393  0.0952
 5126SOL     H241578   0.509   6.744   1.144 -1.0340 -0.8596 -2.1907
 5127SOL    OH241579   7.646   4.451   8.046  0.0283 -0.5719 -0.4520
 5127SOL     H141580   7.620   4.543   8.045  0.8228 -0.3034  1.0548
 5127SOL     H241581   7.709   4.445   8.118  1.5795 -1.8721 -1.8605
 5128SOL    OH241582   5.035   1.427   6.801  0.4678 -0.6837  0.0178
 5128SOL     H141583   5.051   1.520   6.792  1.3797 -0.8126  0.2815
 5128SOL     H241584   4.977   1.420   6.877  0.1989 -0.3144 -0.1548
 5129SOL    OH241585   1.840   6.566   1.382 -0.2871 -0.2824 -0.6494
 5129SOL     H141586   1.840   6.650   1.428 -0.6575 -1.1723  1.0138
 5129SOL     H241587   1.751   6.557   1.350 -0.1542  0.1191 -1.1412
 5130SOL    OH241588   3.516   6.646   6.377  0.0352  0.1894  0.2761
 5130SOL     H141589   3.525   6.592   6.298 -1.0869  2.2711 -1.3269
 5130SOL     H241590   3.581   6.716   6.366 -1.6653  1.7689  0.0762
 5131SOL    OH241591   4.718   4.421   7.186 -0.1961  0.4348  0.0544
 5131SOL     H141592   4.624   4.412   7.171 -0.3234 -0.0713  1.0866
 5131SOL     H241593   4.758   4.349   7.138 -0.4776 -0.3340  0.9525
 5132SOL    OH241594   6.257   2.257   6.747  0.0627  0.1262  0.0547
 5132SOL     H141595   6.255   2.292   6.658  0.0692 -2.0090 -0.8209
 5132SOL     H241596   6.340   2.210   6.753  0.4378  0.9345  1.4710
 5133SOL    OH241597   6.022   7.669   2.073  0.5077 -0.5034  0.5025
 5133SOL     H141598   5.930   7.658   2.098  0.1175  3.2051  0.9680
 5133SOL     H241599   6.071   7.618   2.138 -1.1456 -1.1653  1.2518
 5134SOL    OH241600   1.866   4.925   1.507 -0.0363 -0.2809 -0.4688
 5134SOL     H141601   1.772   4.915   1.490  0.5045  0.6420 -4.4777
 5134SOL     H241602   1.875   5.017   1.534 -0.3581 -0.6184  0.8477
 5135SOL    OH241603   1.823   3.161   7.224  0.4478  0.4786 -0.9023
 5135SOL     H141604   1.810   3.149   7.130  0.2612  1.3969 -0.9946
 5135SOL     H241605   1.750   3.217   7.252 -1.9514 -3.1606  0.5602
 5136SOL    OH241606   4.405   0.281   7.049  0.2311 -0.1371  0.4254
 5136SOL     H141607   4.493   0.315   7.069  0.4464  0.2958 -1.2052
 5136SOL     H241608   4.421   0.204   6.995 -0.3642 -0.8325  1.2386
 5137SOL    OH241609   0.304   7.248   1.225  0.0468 -0.3197  0.0509
 5137SOL     H141610   0.376   7.195   1.191  0.6755  0.4375  0.1891
 5137SOL     H241611   0.345   7.330   1.253 -0.8929  0.1882 -0.0275
 5138SOL    OH241612   2.272   0.142   0.293 -0.1078  0.0172 -0.3933
 5138SOL     H141613   2.332   0.123   0.365  0.8248 -0.4152 -1.2839
 5138SOL     H241614   2.273   0.238   0.286  1.2587 -0.0467 -1.0755
 5139SOL    OH241615   4.813   7.804   1.834 -0.3342  0.6128  0.0653
 5139SOL     H141616   4.799   7.899   1.838 -0.0157  0.6608  0.0122
 5139SOL     H241617   4.817   7.777   1.926 -2.1777  0.3900  0.0998
 5140SOL    OH241618   0.691   5.780   7.962  0.6465  0.0833  0.1614
 5140SOL     H141619   0.596   5.782   7.973  0.8336  0.2336  1.8706
 5140SOL     H241620   0.725   5.775   8.051  2.2799  1.0856 -0.3945
 5141SOL    OH241621   1.003   6.575   6.035 -0.3559  0.9004 -0.7717
 5141SOL     H141622   1.023   6.622   6.115 -0.5627 -1.9767  1.0506
 5141SOL     H241623   0.912   6.597   6.016 -1.4823 -1.1441  1.8550
 5142SOL    OH241624   1.528   7.172   7.929 -0.0085 -0.2406 -0.1622
 5142SOL     H141625   1.485   7.128   7.857 -0.8323  1.7846 -0.9315
 5142SOL     H241626   1.490   7.132   8.008  0.0713 -1.6472 -0.8164
 5143SOL    OH241627   1.467   0.024   7.770 -0.0617  0.3412 -0.6257
 5143SOL     H141628   1.413  -0.051   7.794 -1.3067  1.3742 -0.1296
 5143SOL     H241629   1.521   0.041   7.848  0.3884 -0.1729 -0.8225
 5144SOL    OH241630   1.904   3.805   0.611 -0.2575  0.3168  0.1948
 5144SOL     H141631   1.998   3.810   0.623 -0.2808 -0.9609  1.0957
 5144SOL     H241632   1.868   3.866   0.675 -0.0280  1.2814 -0.5888
 5145SOL    OH241633   5.107   0.439   7.925  0.7255 -0.1675  0.3441
 5145SOL     H141634   5.051   0.377   7.972 -0.3522  0.9588  0.5872
 5145SOL     H241635   5.067   0.446   7.838  0.2563  0.9201  0.6376
 5146SOL    OH241636   1.199   1.850   2.314 -0.1573  0.1704 -0.2690
 5146SOL     H141637   1.135   1.781   2.294 -1.7947  1.5529 -0.0031
 5146SOL     H241638   1.222   1.886   2.228 -0.0605 -0.0603 -0.3399
 5147SOL    OH241639   4.755   1.549   6.155 -0.1308  0.5212  0.2477
 5147SOL     H141640   4.674   1.590   6.185 -0.9074 -0.9549  0.1897
 5147SOL     H241641   4.807   1.538   6.234 -0.2805  0.8148  0.3870
 5148SOL    OH241642   1.379   1.800   8.082  0.3410  0.2998  0.1625
 5148SOL     H141643   1.335   1.742   8.144  1.9733 -0.1733  0.9171
 5148SOL     H241644   1.311   1.860   8.053 -0.6938 -0.1208  1.6504
 5149SOL    OH241645   4.020   3.956   8.263 -0.3416  0.1311  0.1649
 5149SOL     H141646   4.065   3.891   8.208 -0.2871  0.5716 -0.3219
 5149SOL     H241647   3.930   3.924   8.270 -0.3447  0.0620 -0.1774
 5150SOL    OH241648   6.465   1.470   7.931  0.0983 -0.7816 -0.4673
 5150SOL     H141649   6.534   1.487   7.996 -1.9622  1.4561  1.2315
 5150SOL     H241650   6.451   1.375   7.935  0.8649 -0.8364  1.4617
 5151SOL    OH241651   6.001   7.618   1.064 -0.2722  0.3103  0.4162
 5151SOL     H141652   5.947   7.543   1.037 -1.2026  0.5999  1.4548
 5151SOL     H241653   6.015   7.667   0.983 -2.0687  0.5342  0.2222
 5152SOL    OH241654   6.198   0.982   0.693  0.1941 -0.1748  0.6669
 5152SOL     H141655   6.228   0.969   0.782  1.4449  1.2663  0.4830
 5152SOL     H241656   6.103   0.971   0.697  0.1233  0.9902  2.3912
 5153SOL    OH241657   6.510   3.053   6.850 -0.0990 -0.2835  0.2279
 5153SOL     H141658   6.561   2.982   6.889  0.2333 -0.7748 -1.0644
 5153SOL     H241659   6.500   3.117   6.920 -1.3473 -2.0933  1.7473
 5154SOL    OH241660   7.257   7.847   6.726 -0.1212  0.3852 -0.1753
 5154SOL     H141661   7.288   7.845   6.816  1.6840  0.4500 -0.7782
 5154SOL     H241662   7.254   7.940   6.703 -0.7097  0.3754 -0.1359
 5155SOL    OH241663   0.991   6.092   2.515 -0.2093 -0.5024  0.3745
 5155SOL     H141664   1.052   6.161   2.487  0.4513 -1.6583 -1.1206
 5155SOL     H241665   0.946   6.067   2.435 -1.7342 -0.5740  1.2420
 5156SOL    OH241666   1.281   3.631   0.759 -0.0778  0.1933 -0.2263
 5156SOL     H141667   1.247   3.595   0.841 -0.8133 -1.2666 -1.1465
 5156SOL     H241668   1.370   3.597   0.753 -0.7066 -1.3789 -0.9992
 5157SOL    OH241669   3.916   0.402   1.608 -1.3081 -0.0121 -0.3500
 5157SOL     H141670   4.004   0.439   1.601 -0.9390 -0.8286 -0.1578
 5157SOL     H241671   3.882   0.437   1.690 -2.4009  2.8370 -1.9345
 5158SOL    OH241672   5.235   2.096   0.804 -0.1139 -0.0189  0.0587
 5158SOL     H141673   5.247   2.169   0.864 -0.3520  0.5964 -0.6381
 5158SOL     H241674   5.317   2.092   0.755 -0.4116  0.2992 -0.4668
 5159SOL    OH241675   5.744   5.636   7.219  0.0243 -0.0199 -0.2607
 5159SOL     H141676   5.784   5.626   7.132  0.2173  0.1914 -0.1962
 5159SOL     H241677   5.781   5.565   7.271 -0.1765 -0.2160 -0.3819
 5160SOL    OH241678   1.724   0.919   0.623  0.1367 -0.0223 -0.2846
 5160SOL     H141679   1.799   0.897   0.678  1.2438 -1.1994 -2.2484
 5160SOL     H241680   1.740   1.010   0.597  1.1259 -0.4097 -1.0631
 5161SOL    OH241681   3.638   1.570   6.661 -0.0819  0.1055 -0.8648
 5161SOL     H141682   3.642   1.568   6.757 -0.6915 -1.8135 -0.8807
 5161SOL     H241683   3.726   1.544   6.633 -0.5518 -1.5303 -0.8395
 5162SOL    OH241684   2.079   1.491   1.209 -0.7035  0.3703  0.0725
 5162SOL     H141685   2.057   1.431   1.138 -0.2482  1.2890 -0.8669
 5162SOL     H241686   2.000   1.496   1.262 -1.2369  0.1040 -0.6851
 5163SOL    OH241687   6.321   7.328   0.594  1.0352 -0.4971 -0.2675
 5163SOL     H141688   6.356   7.397   0.538  1.1723 -1.0548 -0.8807
 5163SOL     H241689   6.233   7.358   0.617  0.9993 -0.2348 -0.7374
 5164SOL    OH241690   5.131   5.465   0.141  0.0924  0.4329  0.2063
 5164SOL     H141691   5.123   5.373   0.165 -0.1729  0.7683  1.4612
 5164SOL     H241692   5.074   5.511   0.203  2.0629  1.6558  1.1781
 5165SOL    OH241693   3.549   3.091   0.245  0.3186  0.4261  0.2450
 5165SOL     H141694   3.527   3.111   0.155 -0.1237  1.1124  0.5031
 5165SOL     H241695   3.590   3.004   0.241  0.7243  0.6498 -0.6648
 5166SOL    OH241696   3.205   3.689   1.813 -0.9505 -0.3541  0.2094
 5166SOL     H141697   3.165   3.765   1.855 -2.5334 -2.1706  2.0970
 5166SOL     H241698   3.271   3.658   1.875 -0.3667 -0.5475 -0.5075
 5167SOL    OH241699   0.063   4.837   7.650  0.6682  0.2990 -0.1037
 5167SOL     H141700  -0.031   4.825   7.662  0.2852  2.8052 -0.3853
 5167SOL     H241701   0.079   4.817   7.558  0.4549 -0.3545  0.0015
 5168SOL    OH241702   3.648   3.931   0.792  0.2972 -0.7365 -0.2444
 5168SOL     H141703   3.726   3.876   0.802  0.4706 -0.2146  1.5317
 5168SOL     H241704   3.613   3.938   0.881 -1.0710  0.0802 -0.8324
 5169SOL    OH241705   2.268   5.668   1.211 -0.1595 -0.3344  0.1069
 5169SOL     H141706   2.216   5.628   1.280 -0.6891 -0.4321 -0.3396
 5169SOL     H241707   2.352   5.624   1.216  0.0274  0.1259  1.1144
 5170SOL    OH241708   7.081   3.395   7.056  0.5309 -0.1519 -0.3865
 5170SOL     H141709   7.154   3.432   7.105 -1.4088  1.3114  1.4672
 5170SOL     H241710   7.006   3.449   7.080 -1.7046 -3.2346 -0.2295
 5171SOL    OH241711   7.813   5.036   7.334  0.2041  0.4017  0.4371
 5171SOL     H141712   7.839   4.978   7.406  0.5112  0.2766  0.2288
 5171SOL     H241713   7.727   5.069   7.359  0.0895 -0.0371  0.6270
 5172SOL    OH241714   2.181   5.260   0.413 -0.4348  0.4693 -0.0535
 5172SOL     H141715   2.190   5.202   0.337 -0.6430  0.5823 -0.1673
 5172SOL     H241716   2.267   5.300   0.424 -0.6595  1.1676 -0.8119
 5173SOL    OH241717   4.897   2.919   5.822  0.0497  0.2859 -0.5469
 5173SOL     H141718   4.939   2.852   5.768  0.8087  0.8979 -0.7224
 5173SOL     H241719   4.954   2.996   5.814 -0.0033  0.4919  0.8412
 5174SOL    OH241720   2.421   3.784   2.493 -0.3840 -0.1734  0.1003
 5174SOL     H141721   2.422   3.703   2.442 -0.0211 -0.6286  0.8252
 5174SOL     H241722   2.366   3.844   2.442 -1.0663 -1.0350 -0.1768
 5175SOL    OH241723   2.801   3.232   1.432  0.2052  0.3459 -0.1265
 5175SOL     H141724   2.820   3.139   1.426 -0.1589  0.2578  0.0316
 5175SOL     H241725   2.722   3.237   1.486 -0.4676  0.6595 -1.1077
 5176SOL    OH241726   6.800   0.320   1.751  0.3618 -0.0447 -0.1691
 5176SOL     H141727   6.734   0.252   1.737  0.6283 -0.3313 -0.0491
 5176SOL     H241728   6.779   0.388   1.687 -1.0150  0.5790  0.9251
 5177SOL    OH241729   0.347   5.545   6.836 -0.1489  0.0364  0.7205
 5177SOL     H141730   0.362   5.603   6.911 -0.9121  0.2830  0.6907
 5177SOL     H241731   0.271   5.583   6.791 -0.7332 -1.0628  0.7676
 5178SOL    OH241732   4.168   1.792   7.917 -0.5582  0.2470 -0.8048
 5178SOL     H141733   4.219   1.778   7.996 -0.8647 -0.0249 -0.6552
 5178SOL     H241734   4.188   1.716   7.861 -1.0060 -0.0000 -0.6347
 5179SOL    OH241735   3.673   0.024   8.243  0.3357 -0.1328  0.0378
 5179SOL     H141736   3.583   0.054   8.256  0.6429  1.0165 -0.4703
 5179SOL     H241737   3.687  -0.040   8.314 -1.0704 -0.7918 -0.2578
 5180SOL    OH241738   6.810   0.418   1.277 -0.5317 -0.3756 -0.8233
 5180SOL     H141739   6.873   0.483   1.306  0.1704 -1.2520 -0.3553
 5180SOL     H241740   6.854   0.374   1.204 -1.2215  0.0385 -1.4915
 5181SOL    OH241741   1.025   5.664   1.170  0.1325 -0.0978  0.0442
 5181SOL     H141742   0.938   5.629   1.151  0.5470 -1.1588  0.0908
 5181SOL     H241743   1.070   5.663   1.086  1.0181 -2.1483  0.5110
 5182SOL    OH241744   0.855   0.829   7.620  0.0109  0.4411 -0.2870
 5182SOL     H141745   0.843   0.744   7.577  3.5598 -0.2570 -0.0983
 5182SOL     H241746   0.888   0.886   7.551  0.0550  0.9677  0.1667
 5183SOL    OH241747   5.409   2.542   0.467 -0.0069 -0.6591  0.3756
 5183SOL     H141748   5.495   2.543   0.510  0.7000 -1.0746 -0.9900
 5183SOL     H241749   5.364   2.619   0.501  2.1212  1.4215 -1.2888
 5184SOL    OH241750   2.830   4.897   0.396 -0.2240 -0.1784 -0.4008
 5184SOL     H141751   2.833   4.972   0.455 -0.4856 -0.8315  0.4621
 5184SOL     H241752   2.898   4.915   0.330 -0.4664  0.9237 -0.3550
 5185SOL    OH241753   5.467   0.117   2.801 -0.6373  0.3560  0.5982
 5185SOL     H141754   5.466   0.026   2.770 -0.4924  1.1722 -1.8639
 5185SOL     H241755   5.407   0.118   2.876 -1.8148 -1.4255 -0.3081
 5186SOL    OH241756   3.608   2.901   0.929  0.2346 -0.4026  0.7000
 5186SOL     H141757   3.703   2.907   0.924  0.3096 -1.2100  1.0681
 5186SOL     H241758   3.581   2.982   0.973  0.8631 -0.8176  1.8557
 5187SOL    OH241759   3.314   1.496   0.858  0.7757  0.0455  0.3141
 5187SOL     H141760   3.373   1.571   0.866  1.0148 -0.2055  0.9938
 5187SOL     H241761   3.309   1.478   0.764  2.3502 -0.3684  0.2912
 5188SOL    OH241762   2.803   4.904   6.641 -0.0833 -0.7186 -0.3269
 5188SOL     H141763   2.880   4.851   6.622  0.5453  0.4487 -1.0411
 5188SOL     H241764   2.747   4.846   6.694  1.3544 -1.4985  0.3601
 5189SOL    OH241765   1.730   4.369   0.963  0.0640 -0.0459  0.2167
 5189SOL     H141766   1.803   4.330   1.011  1.0517 -0.5303 -1.6527
 5189SOL     H241767   1.745   4.464   0.971  0.6563 -0.1344  0.2019
 5190SOL    OH241768   2.350   1.475   2.145  0.3434  0.3789  0.0954
 5190SOL     H141769   2.407   1.398   2.144  1.2392  1.0168 -2.3162
 5190SOL     H241770   2.405   1.545   2.179  0.4670  0.6048 -0.5617
 5191SOL    OH241771   7.550   1.444   6.755  0.2077 -0.1116 -0.4057
 5191SOL     H141772   7.537   1.464   6.662  1.7287  2.0832 -0.1799
 5191SOL     H241773   7.623   1.500   6.782 -1.3756  0.6425  2.5636
 5192SOL    OH241774   5.680   0.588   0.536 -0.5536  0.2180  0.2192
 5192SOL     H141775   5.601   0.612   0.487 -0.3351  0.9776  0.2306
 5192SOL     H241776   5.650   0.527   0.602 -0.7479 -1.3771 -1.3118
 5193SOL    OH241777   0.869   4.622   6.307 -0.7340 -0.5033  0.1667
 5193SOL     H141778   0.854   4.715   6.287 -0.2793 -0.5741 -0.5167
 5193SOL     H241779   0.964   4.612   6.305 -0.8085 -1.1581 -0.5888
 5194SOL    OH241780   4.257   2.533   7.616  0.0662 -0.3371  0.0331
 5194SOL     H141781   4.226   2.444   7.597 -1.2266  0.2635 -0.7714
 5194SOL     H241782   4.343   2.521   7.656 -0.7974 -2.0147  1.4357
 5195SOL    OH241783   2.345   4.049   1.244  0.2095  0.3066  0.4534
 5195SOL     H141784   2.309   3.969   1.206 -0.9718  1.1359 -0.2320
 5195SOL     H241785   2.320   4.045   1.336 -1.0121  0.5007  0.1423
 5196SOL    OH241786   0.378   4.106   7.990  0.5700  0.0890  0.0428
 5196SOL     H141787   0.462   4.097   8.035  1.1360 -0.8285 -1.1814
 5196SOL     H241788   0.333   4.023   8.006  0.1588  0.3267  0.1432
 5197SOL    OH241789   1.778   5.397   1.994  0.5732  0.2601  0.2996
 5197SOL     H141790   1.843   5.410   2.063  0.9536 -1.1713  0.2323
 5197SOL     H241791   1.828   5.358   1.922 -0.1092  0.3437 -0.2196
 5198SOL    OH241792   0.257   1.589   7.422  0.3207 -0.3673 -0.6637
 5198SOL     H141793   0.322   1.521   7.406 -0.7102 -1.2984 -0.9824
 5198SOL     H241794   0.203   1.590   7.343  0.3603  0.8711 -0.6901
 5199SOL    OH241795   0.048   3.339   1.437  0.0328  0.2562 -0.0894
 5199SOL     H141796   0.072   3.431   1.449 -0.7508  0.0183  3.6657
 5199SOL     H241797   0.111   3.307   1.372  1.6699  2.8948  0.1210
 5200SOL    OH241798   1.150   1.755   0.785 -0.5311  0.3054  0.0623
 5200SOL     H141799   1.108   1.733   0.868 -1.8829 -0.5866 -0.8175
 5200SOL     H241800   1.173   1.670   0.747 -1.6566  0.5914 -1.3153
 5201SOL    OH241801   0.574   2.721   7.964  0.6835 -0.2250 -0.0678
 5201SOL     H141802   0.529   2.639   7.986  1.2783 -0.3327  0.8145
 5201SOL     H241803   0.667   2.698   7.969  0.8702 -0.3995 -3.3754
 5202SOL    OH241804   0.673   3.412   1.530  0.3559 -0.5488  0.5603
 5202SOL     H141805   0.594   3.393   1.581 -0.3095  1.0856  0.1671
 5202SOL     H241806   0.733   3.454   1.592  0.5424 -0.9041  0.6215
 5203SOL    OH241807   3.591   3.936   7.403 -0.3862  0.3880 -0.9098
 5203SOL     H141808   3.636   3.946   7.318  0.5258  1.7860 -0.2886
 5203SOL     H241809   3.578   4.025   7.433 -2.2162 -0.0657 -0.3327
 5204SOL    OH241810   4.171   3.341   1.431 -0.0486  0.6302 -1.0337
 5204SOL     H141811   4.091   3.393   1.441 -0.6715 -0.3570 -0.8954
 5204SOL     H241812   4.196   3.317   1.520  0.6858  1.3318 -1.0323
 5205SOL    OH241813   7.677   5.246   8.147  0.1091  0.6043  0.0390
 5205SOL     H141814   7.634   5.326   8.119 -0.1465  0.7144  0.7536
 5205SOL     H241815   7.634   5.176   8.097  0.5216  0.9396 -0.7854
 5206SOL    OH241816   0.420   0.454   0.940  0.5217 -0.3607  0.0696
 5206SOL     H141817   0.343   0.511   0.948  0.4586 -0.1816 -1.6367
 5206SOL     H241818   0.472   0.474   1.018 -1.4544 -0.9637  1.5860
 5207SOL    OH241819   4.005   7.066   0.399  0.1258  0.3146 -0.2624
 5207SOL     H141820   3.940   7.072   0.469 -0.1198  1.7145 -0.6051
 5207SOL     H241821   4.039   7.155   0.390  0.9868 -0.0983 -1.1410
 5208SOL    OH241822   0.041   7.646   0.323  0.5050 -0.8191  0.2080
 5208SOL     H141823  -0.030   7.620   0.265 -0.2938  1.0468  0.3047
 5208SOL     H241824   0.121   7.636   0.271 -0.1408  0.1621 -0.9939
 5209SOL    OH241825   6.922   5.660   7.662  0.5828  0.5560  0.2080
 5209SOL     H141826   6.943   5.701   7.577  4.0635 -2.7252 -0.6333
 5209SOL     H241827   6.988   5.694   7.722 -0.6155  1.2579  1.1573
 5210SOL    OH241828   5.858   7.700   1.275  0.1212  0.3470 -0.4393
 5210SOL     H141829   5.928   7.685   1.212 -0.0124 -2.0558 -0.0798
 5210SOL     H241830   5.902   7.696   1.360 -0.2436  0.0254 -0.2638
 5211SOL    OH241831   5.410   4.245   3.110 -0.0975 -0.3051 -0.3262
 5211SOL     H141832   5.484   4.188   3.089 -0.4764 -1.3369  1.0736
 5211SOL     H241833   5.341   4.219   3.050 -0.2783 -1.3652  0.3279
 5212SOL    OH241834   0.281   7.610   5.903  0.2843 -0.4546 -0.3115
 5212SOL     H141835   0.335   7.680   5.867  1.3452  0.0816  2.1790
 5212SOL     H241836   0.261   7.639   5.992 -0.5849 -2.6049  0.2276
 5213SOL    OH241837   4.666   7.616   0.215 -0.3744 -0.0188  0.4405
 5213SOL     H141838   4.751   7.658   0.225 -0.4052 -0.3746  2.3095
 5213SOL     H241839   4.617   7.641   0.293 -1.2915 -1.4283  0.3436
 5214SOL    OH241840   2.936   2.928   1.965  0.2017  0.6919  0.0000
 5214SOL     H141841   2.987   2.996   2.010  0.1948 -0.0325  1.1332
 5214SOL     H241842   2.932   2.957   1.874  2.5238  0.8423 -0.0787
 5215SOL    OH241843   7.969   3.715   8.261 -0.3879 -0.2614  0.2586
 5215SOL     H141844   8.003   3.700   8.173 -0.9037  1.6779 -0.2864
 5215SOL     H241845   7.910   3.640   8.277 -1.0811 -0.0995 -1.4519
 5216SOL    OH241846   7.742   4.275   1.975  0.2238 -0.1245 -0.2320
 5216SOL     H141847   7.759   4.348   1.916 -1.0081  0.4599  0.1148
 5216SOL     H241848   7.798   4.292   2.050  1.6995 -0.7977 -1.1495
 5217SOL    OH241849   5.355   7.095   1.356  0.2662  0.1349 -0.1916
 5217SOL     H141850   5.301   7.049   1.291  0.8757 -0.5608 -0.2038
 5217SOL     H241851   5.444   7.091   1.320 -0.0807  3.9422 -1.7030
 5218SOL    OH241852   0.421   6.556   0.829 -0.1720  0.4301  0.2522
 5218SOL     H141853   0.471   6.560   0.910  0.4603  2.7743 -0.2218
 5218SOL     H241854   0.487   6.558   0.760 -0.8425  1.6164 -0.3571
 5219SOL    OH241855   5.498   1.823   7.392 -1.1743 -0.2863 -0.1235
 5219SOL     H141856   5.532   1.756   7.451  0.1586  0.2630 -0.2394
 5219SOL     H241857   5.499   1.903   7.444 -1.0128 -0.0060 -0.5560
 5220SOL    OH241858   2.557   3.704   6.547  0.1007  0.0375  0.1507
 5220SOL     H141859   2.533   3.775   6.487 -0.0139  0.3486  0.5588
 5220SOL     H241860   2.572   3.748   6.631  2.0579 -0.1507 -0.0715
 5221SOL    OH241861   1.024   2.026   6.462 -0.1595  1.0736 -0.2126
 5221SOL     H141862   1.072   2.089   6.407  1.9058  0.8242  1.2449
 5221SOL     H241863   0.965   2.080   6.514  0.5914  1.6841  0.0199
 5222SOL    OH241864   0.930   6.741   8.093 -0.3052 -0.0185 -0.3544
 5222SOL     H141865   0.897   6.665   8.044  0.1851 -0.4265 -0.0571
 5222SOL     H241866   1.024   6.723   8.104  0.2396  1.6237 -2.0888
 5223SOL    OH241867   2.776   0.821   1.537 -0.4730 -0.2138 -0.4098
 5223SOL     H141868   2.857   0.865   1.511 -0.2626 -0.6562 -0.5009
 5223SOL     H241869   2.755   0.764   1.462 -1.5610  0.8612 -0.9395
 5224SOL    OH241870   4.565   3.748   0.115  0.1563 -0.0102  0.0148
 5224SOL     H141871   4.504   3.782   0.049 -0.7691 -0.4200  0.6590
 5224SOL     H241872   4.652   3.764   0.077 -0.3255  1.1623 -0.6239
 5225SOL    OH241873   1.053   1.043   1.348 -0.7740 -0.0383  0.6326
 5225SOL     H141874   1.011   1.063   1.264 -1.7691 -1.5595  0.7445
 5225SOL     H241875   0.995   0.978   1.388  1.4994 -1.9162  0.9512
 5226SOL    OH241876   2.988   7.755   6.993  0.4795 -0.3318  0.2128
 5226SOL     H141877   2.905   7.752   6.946  0.1615  1.3684  0.6599
 5226SOL     H241878   2.985   7.679   7.051 -0.7862 -0.2468  0.2698
 5227SOL    OH241879   5.416   7.828   1.589  0.1134 -0.5122 -0.1829
 5227SOL     H141880   5.372   7.755   1.546 -0.0451 -0.2857 -0.4027
 5227SOL     H241881   5.349   7.897   1.595  0.0658 -0.6206  0.6214
 5228SOL    OH241882   5.956   6.757   7.512  0.0760 -0.1243  0.4058
 5228SOL     H141883   6.023   6.694   7.538  0.3586 -0.4372 -1.0141
 5228SOL     H241884   5.884   6.703   7.479  1.0765  0.2748 -2.6261
 5229SOL    OH241885   3.480   0.586   7.427 -0.0795  0.3404 -0.0233
 5229SOL     H141886   3.386   0.568   7.437  0.4809 -2.2327  1.1330
 5229SOL     H241887   3.503   0.641   7.502 -0.8425  1.8296 -0.8614
 5230SOL    OH241888   3.193   0.331   6.688  0.0517 -0.1581 -0.0184
 5230SOL     H141889   3.228   0.385   6.758  0.9594 -0.5819 -0.1385
 5230SOL     H241890   3.268   0.281   6.656 -0.8755 -1.8796  0.4487
 5231SOL    OH241891   5.232  -0.014   0.040 -0.5211  0.2045 -0.3922
 5231SOL     H141892   5.228  -0.031   0.134  2.7894  4.1198  0.6123
 5231SOL     H241893   5.169   0.057   0.026  0.2709  0.8433 -0.7710
 5232SOL    OH241894   6.781   1.786   0.024 -0.0405 -0.1691 -0.4532
 5232SOL     H141895   6.872   1.814   0.015  0.6647 -2.5514 -0.9108
 5232SOL     H241896   6.776   1.748   0.112  0.0438 -2.3051 -1.3556
 5233SOL    OH241897   6.842   0.404   0.966 -0.3191  0.3774 -0.2892
 5233SOL     H141898   6.751   0.421   0.943  0.7526  2.0405 -3.6565
 5233SOL     H241899   6.852   0.309   0.959 -1.8666  0.1432  0.5591
 5234SOL    OH241900   7.693   3.789   0.328  0.5275 -0.1049 -0.1671
 5234SOL     H141901   7.674   3.786   0.235 -1.5795 -3.0673  0.3186
 5234SOL     H241902   7.616   3.830   0.368  1.0045  0.2669  0.3904
 5235SOL    OH241903   5.301   1.968   0.499  0.5520 -0.3144 -0.6524
 5235SOL     H141904   5.373   1.936   0.445  1.2611 -0.0215  0.1133
 5235SOL     H241905   5.310   2.063   0.499  1.0438 -0.3504  0.6369
 5236SOL    OH241906   2.741   0.236   6.310  0.4212  0.5951  0.1202
 5236SOL     H141907   2.789   0.203   6.386  0.8527 -0.1568 -0.4785
 5236SOL     H241908   2.678   0.167   6.288  0.6599  0.5747 -0.5278
 5237SOL    OH241909   0.477   6.482   5.874  0.2156 -0.0654 -0.4349
 5237SOL     H141910   0.449   6.566   5.911  0.6437  0.0010 -0.2679
 5237SOL     H241911   0.398   6.428   5.877  0.4842 -0.3909  1.4912
 5238SOL    OH241912   7.714   2.732   0.625 -0.5966 -0.5015  0.3724
 5238SOL     H141913   7.790   2.686   0.590 -1.5791 -1.0747 -1.0653
 5238SOL     H241914   7.748   2.817   0.652  0.3419 -0.3038 -1.3519
 5239SOL    OH241915   3.051   3.518   1.668 -0.0693 -0.2808 -0.6617
 5239SOL     H141916   2.963   3.540   1.696 -0.9863 -0.1303 -3.4972
 5239SOL     H241917   3.107   3.584   1.709 -1.4013  0.3728  0.1304
 5240SOL    OH241918   7.383   4.028   6.754 -0.0106 -0.2616  0.9376
 5240SOL     H141919   7.413   3.937   6.757 -1.4268 -0.7351  0.8247
 5240SOL     H241920   7.406   4.057   6.665  0.5696 -0.4581  1.0199
 5241SOL    OH241921   0.446   7.872   0.288  0.3253  0.4350  0.8800
 5241SOL     H141922   0.485   7.878   0.375  2.2424  2.2008 -0.0718
 5241SOL     H241923   0.517   7.893   0.227 -1.1884  0.0863 -1.0826
 5242SOL    OH241924   2.310   6.487   8.216  0.2872  0.2208 -0.0863
 5242SOL     H141925   2.327   6.469   8.124 -1.1337  0.6514 -0.4447
 5242SOL     H241926   2.252   6.417   8.244 -0.4754  0.9103  0.0801
 5243SOL    OH241927   3.607   3.481   7.497 -0.0872 -0.5237 -0.1627
 5243SOL     H141928   3.542   3.540   7.458 -0.1018 -0.2629  0.2526
 5243SOL     H241929   3.561   3.399   7.510 -0.4947 -0.1689  0.6533
 5244SOL    OH241930   3.025   6.663   0.398  0.4587  0.5290  0.2680
 5244SOL     H141931   3.044   6.570   0.404 -1.3114  0.1931  0.9781
 5244SOL     H241932   3.105   6.706   0.428  1.2634 -0.7548 -0.0018
 5245SOL    OH241933   0.450   5.449   2.548 -0.0948 -0.1133 -0.1328
 5245SOL     H141934   0.468   5.363   2.509  2.5079  0.7047 -0.8419
 5245SOL     H241935   0.526   5.467   2.602  0.5781  2.8117 -1.9099
 5246SOL    OH241936   5.136   5.739   1.046  0.2515 -0.0723 -0.0185
 5246SOL     H141937   5.056   5.792   1.039 -0.4456 -1.1702 -0.5795
 5246SOL     H241938   5.178   5.770   1.125 -1.6523 -0.6753  1.2734
 5247SOL    OH241939   6.569   3.399   2.616  0.5058  0.0045  0.5935
 5247SOL     H141940   6.636   3.460   2.583 -0.1461 -0.5437 -1.8573
 5247SOL     H241941   6.597   3.313   2.584  0.5088 -0.7761  2.5910
 5248SOL    OH241942   0.679   2.334   0.764 -0.3729  0.1239 -0.7455
 5248SOL     H141943   0.590   2.299   0.765 -0.4067  0.2033 -1.0131
 5248SOL     H241944   0.713   2.315   0.851 -1.6392  2.6352  0.3659
 5249SOL    OH241945   1.424   7.939   1.287 -0.7728  0.0825 -0.3082
 5249SOL     H141946   1.412   7.851   1.323 -1.1964  1.2724  2.5995
 5249SOL     H241947   1.494   7.977   1.341  0.3606  1.0780 -2.4238
 5250SOL    OH241948   7.315   6.517   7.152 -1.0574  0.0106 -0.3163
 5250SOL     H141949   7.409   6.508   7.140 -1.1922 -1.8934 -0.1426
 5250SOL     H241950   7.298   6.611   7.143  0.9262  0.4473  0.2100
 5251SOL    OH241951   1.668   4.822   1.722  0.2643  0.0625  0.3593
 5251SOL     H141952   1.601   4.865   1.669  0.8330  0.2143 -0.2372
 5251SOL     H241953   1.711   4.893   1.769 -0.3159 -0.0827  1.1171
 5252SOL    OH241954   1.080   6.321   5.960  0.4217  0.3764  0.6308
 5252SOL     H141955   1.032   6.392   6.002  0.7825 -0.0279  1.7478
 5252SOL     H241956   1.011   6.263   5.927  0.1187 -0.3839  2.5473
 5253SOL    OH241957   2.641   4.150   6.602 -0.3986  0.1602 -0.1002
 5253SOL     H141958   2.641   4.117   6.512  0.8700 -1.3772  0.4411
 5253SOL     H241959   2.601   4.080   6.654  2.3800 -0.6242  1.0691
 5254SOL    OH241960   5.415   3.839   1.472  0.4584  0.0248 -0.5472
 5254SOL     H141961   5.419   3.764   1.414  0.7285  0.0065 -0.5064
 5254SOL     H241962   5.324   3.843   1.500  0.3169  0.0716 -1.0179
 5255SOL    OH241963   3.949   0.822   7.967 -0.4229 -0.4892 -0.5460
 5255SOL     H141964   3.870   0.874   7.985  1.3859  2.2041 -0.1712
 5255SOL     H241965   3.992   0.815   8.052  1.6926  1.3883 -1.4285
 5256SOL    OH241966   3.463   6.004   8.202  0.3132  0.4546 -0.2035
 5256SOL     H141967   3.384   5.959   8.231 -0.7177  2.2766 -0.0652
 5256SOL     H241968   3.531   5.974   8.262 -0.9920  1.3392  1.8052
 5257SOL    OH241969   2.593   5.181   6.766 -0.4100 -0.0973  0.3021
 5257SOL     H141970   2.685   5.176   6.738 -0.7105  0.8196 -0.8981
 5257SOL     H241971   2.544   5.191   6.685 -1.4493  0.9154  1.0357
 5258SOL    OH241972   5.747   4.027   6.374 -0.0913  0.5841 -0.5426
 5258SOL     H141973   5.658   4.023   6.409  0.0272 -0.4295 -0.3580
 5258SOL     H241974   5.792   3.951   6.412  1.8224  2.8635  2.0089
 5259SOL    OH241975   7.954   0.440   1.164  0.0677  0.3938 -0.1814
 5259SOL     H141976   7.924   0.530   1.177 -0.5339  0.3023 -0.8997
 5259SOL     H241977   7.964   0.432   1.069  0.0647 -0.3217 -0.1237
 5260SOL    OH241978   4.085   2.965   1.874 -0.3280  0.3699 -0.2326
 5260SOL     H141979   4.082   2.883   1.825 -4.1142 -1.1361  2.2831
 5260SOL     H241980   4.027   3.024   1.826 -0.2974  0.4527 -0.1683
 5261SOL    OH241981   0.507   0.813   0.657  0.4959  0.1393 -0.5759
 5261SOL     H141982   0.540   0.729   0.688 -1.6127 -0.8074 -0.8430
 5261SOL     H241983   0.530   0.815   0.563 -0.5211 -0.6773 -0.8467
 5262SOL    OH241984   5.152   6.302   0.571 -0.3843 -0.4371  0.4443
 5262SOL     H141985   5.160   6.225   0.626 -0.5848  0.1349  1.2878
 5262SOL     H241986   5.177   6.375   0.628  0.0312  0.0954 -0.4069
 5263SOL    OH241987   4.812   6.528   1.375  0.1792 -0.2062 -0.0086
 5263SOL     H141988   4.812   6.493   1.464 -0.2177  2.5810  1.1376
 5263SOL     H241989   4.901   6.561   1.361 -0.1028  0.4967 -0.1714
 5264SOL    OH241990   6.730   2.149   6.421  0.6406  0.3562 -0.1716
 5264SOL     H141991   6.704   2.231   6.380 -0.8289  0.3121  0.6121
 5264SOL     H241992   6.649   2.098   6.424  1.8518 -1.7623 -2.1189
 5265SOL    OH241993   6.575   5.432   1.112 -0.1913 -0.1872  0.3264
 5265SOL     H141994   6.611   5.366   1.053 -0.5253 -0.1593  0.0967
 5265SOL     H241995   6.591   5.515   1.067  2.5121  0.1261  1.7225
 5266SOL    OH241996   2.225   4.579   8.038  0.3018  0.1162 -0.0478
 5266SOL     H141997   2.289   4.507   8.033  0.7165  0.4930 -0.1838
 5266SOL     H241998   2.140   4.535   8.041  0.5815 -0.4044  0.4876
 5267SOL    OH241999   3.695   2.034   0.520  0.0978 -0.1062 -0.2412
 5267SOL     H142000   3.645   2.021   0.439  1.3117 -0.0898 -1.0095
 5267SOL     H242001   3.659   1.970   0.581  1.2924 -2.2966 -1.7692
 5268SOL    OH242002   0.555   1.452   1.243 -0.0164  0.0766  0.1404
 5268SOL     H142003   0.602   1.370   1.256  1.3005  0.5362 -1.5371
 5268SOL     H242004   0.571   1.501   1.324  0.3730 -0.7513  0.5742
 5269SOL    OH242005   4.511   3.562   1.493  0.3188 -0.1884 -0.0377
 5269SOL     H142006   4.598   3.540   1.528  0.5012 -0.9830 -0.9674
 5269SOL     H242007   4.458   3.581   1.571  1.6890  1.7030  0.4714
 5270SOL    OH242008   0.923   2.137   7.439  0.5370 -0.3890 -0.0480
 5270SOL     H142009   0.897   2.180   7.520  0.5439 -0.1741 -0.1581
 5270SOL     H242010   0.864   2.173   7.372  0.4274 -0.6815 -0.1096
 5271SOL    OH242011   6.549   2.982  -0.000  0.3111 -0.3299 -0.4823
 5271SOL     H142012   6.567   2.993   0.093 -2.0795  0.6175 -0.0956
 5271SOL     H242013   6.635   2.974  -0.040  1.3388 -1.5047  1.8860
 5272SOL    OH242014   5.477   3.242   1.695 -0.5925 -0.5103  0.4903
 5272SOL     H142015   5.559   3.195   1.709 -0.2523  0.0652  0.4671
 5272SOL     H242016   5.445   3.210   1.610 -0.2191 -0.4879  0.3385
 5273SOL    OH242017   1.890   3.755   7.016  0.1639 -0.6552 -0.1927
 5273SOL     H142018   1.831   3.729   7.087 -0.3714  1.3848  0.1663
 5273SOL     H242019   1.952   3.815   7.057  1.7605 -1.8564 -0.8281
 5274SOL    OH242020   7.837   2.755   8.129  0.2043  0.5589  0.3133
 5274SOL     H142021   7.895   2.813   8.178  0.2374  0.0959  0.8276
 5274SOL     H242022   7.767   2.732   8.191 -0.7659  1.4572 -0.4333
 5275SOL    OH242023   7.094   7.803   6.340  0.3613  0.0694  1.1181
 5275SOL     H142024   7.124   7.744   6.271  0.8259 -0.9049  2.1383
 5275SOL     H242025   6.998   7.794   6.339  0.2805  0.8676 -0.0935
 5276SOL    OH242026   1.783   4.946   1.131 -0.1586 -0.1663  0.0190
 5276SOL     H142027   1.802   5.032   1.094 -0.4678 -0.1618 -0.1414
 5276SOL     H242028   1.860   4.893   1.111  0.3988  0.3160  0.8971
 5277SOL    OH242029   4.197   1.388   7.387 -0.1316  0.0820  0.1054
 5277SOL     H142030   4.279   1.404   7.434 -0.3276  1.4616 -0.0077
 5277SOL     H242031   4.187   1.464   7.329 -0.3625 -1.1548 -1.5065
 5278SOL    OH242032   2.270   6.177   0.703  0.0252 -0.1955  0.0046
 5278SOL     H142033   2.228   6.245   0.650  1.0467  0.5082  0.0941
 5278SOL     H242034   2.359   6.172   0.670  0.7609  0.4368  1.8143
 5279SOL    OH242035   0.539   5.737   0.148 -0.0554 -0.1839  0.3632
 5279SOL     H142036   0.478   5.662   0.145 -0.3542 -0.2093  4.0845
 5279SOL     H242037   0.614   5.709   0.095 -0.5483 -2.7859  0.9359
 5280SOL    OH242038   5.272   1.640   2.489 -0.3330 -0.3864 -0.6065
 5280SOL     H142039   5.202   1.578   2.469  0.5434 -1.7215  0.3425
 5280SOL     H242040   5.305   1.667   2.403 -0.8409 -1.1114 -1.0397
 5281SOL    OH242041   1.201   3.442   8.090 -0.1254 -0.3123 -0.0198
 5281SOL     H142042   1.134   3.394   8.042  0.8815 -1.0649 -0.6877
 5281SOL     H242043   1.252   3.487   8.022 -1.2967  2.0633  0.5964
 5282SOL    OH242044   7.018   1.010   5.594  0.3984 -0.4110  0.2967
 5282SOL     H142045   7.011   0.916   5.613  0.7343 -0.7960 -1.4517
 5282SOL     H242046   6.931   1.044   5.616  0.3972 -1.0422  1.3476
 5283SOL    OH242047   3.104   5.291   7.389 -0.2100  0.0097  0.1047
 5283SOL     H142048   3.157   5.370   7.379  0.9688 -0.4343  2.3782
 5283SOL     H242049   3.014   5.323   7.397 -0.1547  0.8642 -2.3083
 5284SOL    OH242050   4.431   2.735   7.217  0.0761  0.2370  0.2981
 5284SOL     H142051   4.352   2.721   7.268 -0.2776  1.2252  0.0232
 5284SOL     H242052   4.496   2.765   7.280 -0.0931  0.5329  0.3344
 5285SOL    OH242053   0.209   3.924   6.911  0.6419 -0.1469  0.3316
 5285SOL     H142054   0.181   4.007   6.950 -0.1672  0.1988 -0.9771
 5285SOL     H242055   0.208   3.863   6.985 -2.1900  0.1855  0.6403
 5286SOL    OH242056   0.794   1.177   7.789  0.3429  0.4160  0.0212
 5286SOL     H142057   0.745   1.259   7.787 -0.6452 -0.1145  1.3704
 5286SOL     H242058   0.729   1.109   7.772  0.7263 -0.2398  1.0809
 5287SOL    OH242059   6.632   0.275   0.655 -0.1606 -0.2467 -0.3553
 5287SOL     H142060   6.722   0.243   0.651  0.4445  1.4385 -0.4452
 5287SOL     H242061   6.619   0.299   0.747 -0.9061 -1.5379 -0.1061
 5288SOL    OH242062   6.159   1.103   6.390 -0.1527 -0.1551 -0.1539
 5288SOL     H142063   6.213   1.032   6.357  2.1488  1.9050 -0.9831
 5288SOL     H242064   6.146   1.082   6.483  0.8418 -1.4306 -0.2831
 5289SOL    OH242065   7.122   5.395   0.363  0.1936 -0.2331 -0.4221
 5289SOL     H142066   7.059   5.378   0.293  1.8712 -0.3484 -1.9302
 5289SOL     H242067   7.204   5.417   0.318  1.5847 -1.3077  1.4664
 5290SOL    OH242068   1.308   4.604   1.051 -0.5308 -0.6112  0.1175
 5290SOL     H142069   1.400   4.631   1.050 -0.6254 -0.3059 -0.6414
 5290SOL     H242070   1.301   4.535   0.985 -0.7153 -1.0796  0.6234
 5291SOL    OH242071   6.068   6.228   0.563  0.3592 -0.4819 -0.3055
 5291SOL     H142072   6.132   6.298   0.551  0.8159 -0.7255  0.6008
 5291SOL     H242073   6.119   6.148   0.557 -0.2012 -0.7460 -1.5568
 5292SOL    OH242074   4.952   6.781   1.044  0.2484  0.0168  0.3230
 5292SOL     H142075   4.918   6.773   1.133 -1.2716  0.2882 -0.2150
 5292SOL     H242076   4.912   6.709   0.996 -0.2854  0.8704 -0.5421
 5293SOL    OH242077   3.582   2.235   0.197  0.2083  0.0813 -0.2938
 5293SOL     H142078   3.595   2.145   0.167 -0.0274 -0.3839  0.9677
 5293SOL     H242079   3.659   2.282   0.165  1.8722 -1.2486  1.6849
 5294SOL    OH242080   2.308   5.637   8.005 -0.3334 -0.2550 -0.2241
 5294SOL     H142081   2.269   5.720   7.978 -1.2773 -0.2385  1.1549
 5294SOL     H242082   2.402   5.656   8.014 -0.4204  0.4320 -0.7670
 5295SOL    OH242083   7.101   2.988   1.661 -0.5856 -0.1423  0.2284
 5295SOL     H142084   7.095   3.077   1.696  1.2105 -0.1280  0.5204
 5295SOL     H242085   7.011   2.967   1.634 -0.9591  1.8755 -0.1627
 5296SOL    OH242086   0.985   1.861   7.466 -0.7485 -0.2651  0.5834
 5296SOL     H142087   1.005   1.918   7.392  3.0598 -2.5865 -0.2974
 5296SOL     H242088   1.018   1.908   7.542 -0.1769 -0.0479  0.2046
 5297SOL    OH242089   7.094   2.604   8.049  0.3877  0.6216 -0.4920
 5297SOL     H142090   7.041   2.600   8.129  1.6871  0.2766  0.3625
 5297SOL     H242091   7.090   2.515   8.014  0.9836  0.4095 -0.0360
 5298SOL    OH242092   1.740   5.150   6.381  0.5180 -0.1123  0.1861
 5298SOL     H142093   1.832   5.133   6.398  2.1701  4.6343 -3.1044
 5298SOL     H242094   1.709   5.195   6.459  1.2991 -0.6188  0.7985
 5299SOL    OH242095   4.982   3.317   7.386  0.0031 -0.0054  0.0905
 5299SOL     H142096   5.056   3.377   7.372 -0.3122  0.6141  1.0390
 5299SOL     H242097   5.014   3.252   7.448  0.0437 -0.2848 -0.2191
 5300SOL    OH242098   1.605   6.315   5.437  0.1258 -0.1525 -0.2088
 5300SOL     H142099   1.557   6.286   5.360  0.1631 -0.3943 -0.1438
 5300SOL     H242100   1.593   6.244   5.500  0.4318 -0.1427 -0.1370
 5301SOL    OH242101   3.141   7.691   0.278  0.2667 -0.0424 -0.8801
 5301SOL     H142102   3.229   7.729   0.276  1.4026 -2.5239 -0.0264
 5301SOL     H242103   3.150   7.612   0.332 -2.9444  0.7746  0.9793
 5302SOL    OH242104   3.404   2.396   1.177  0.7804 -0.2319 -0.6372
 5302SOL     H142105   3.425   2.450   1.101 -1.4039 -0.7115 -1.6142
 5302SOL     H242106   3.323   2.433   1.212 -0.0509 -2.0649 -0.5512
 5303SOL    OH242107   1.440   0.471   1.903 -0.0957  0.2089  0.3542
 5303SOL     H142108   1.410   0.432   1.986  0.3083 -1.8220 -0.4335
 5303SOL     H242109   1.362   0.513   1.867 -0.1925  1.4626  1.9338
 5304SOL    OH242110   5.707   5.457   6.638 -0.0995  0.0740 -0.2139
 5304SOL     H142111   5.681   5.511   6.712  1.3587  1.8021 -0.9331
 5304SOL     H242112   5.643   5.476   6.570  1.1358  1.9053 -0.8991
 5305SOL    OH242113   1.950   0.757   7.300  0.6441 -0.0660  0.4106
 5305SOL     H142114   2.036   0.736   7.335 -0.3466 -0.5855  2.5777
 5305SOL     H242115   1.942   0.851   7.310  0.5682 -0.1464  1.0753
 5306SOL    OH242116   1.580   3.260   7.322  0.6900  0.2665 -1.0013
 5306SOL     H142117   1.554   3.169   7.305  1.6941  0.1273 -1.8813
 5306SOL     H242118   1.517   3.313   7.274  0.0365  0.0388 -0.3989
 5307SOL    OH242119   6.792   2.118   0.286  0.4789 -0.0999 -0.2197
 5307SOL     H142120   6.774   2.186   0.222  0.4378  0.4202  0.3350
 5307SOL     H242121   6.863   2.067   0.248 -0.1248 -0.3128 -1.0553
 5308SOL    OH242122   2.778   3.842   2.011  0.7195  0.2974 -0.5595
 5308SOL     H142123   2.807   3.753   1.991 -0.1236  0.3411 -2.0075
 5308SOL     H242124   2.805   3.894   1.936  2.1659  1.5013  0.7530
 5309SOL    OH242125   0.694   6.853   2.019 -0.2615  0.7052 -0.0016
 5309SOL     H142126   0.716   6.919   1.952  1.3375 -0.6910 -0.8685
 5309SOL     H242127   0.762   6.862   2.085  1.4148 -1.6935 -1.3155
 5310SOL    OH242128   0.199   0.261   1.899 -0.0215 -0.1691 -0.3927
 5310SOL     H142129   0.289   0.252   1.931 -0.1362 -0.0006 -0.0186
 5310SOL     H242130   0.199   0.217   1.814  0.7252  0.9146 -0.9573
 5311SOL    OH242131   3.051   6.891   5.956 -0.4634 -0.6769  0.3517
 5311SOL     H142132   3.008   6.951   6.016  2.8529  3.2084 -0.9623
 5311SOL     H242133   3.127   6.858   6.004 -0.0063 -0.6461 -0.3404
 5312SOL    OH242134   1.896   5.556   1.587  0.1970 -0.4320  0.5405
 5312SOL     H142135   1.835   5.484   1.568 -2.5599  2.3067 -1.4840
 5312SOL     H242136   1.958   5.555   1.514  0.6947 -1.2453  0.9633
 5313SOL    OH242137   0.181   6.388   1.325  0.2014  0.8386 -0.2311
 5313SOL     H142138   0.103   6.338   1.302  0.6284 -1.5833  3.1233
 5313SOL     H242139   0.254   6.329   1.306  1.0512  2.1826 -1.1480
 5314SOL    OH242140   2.070   5.170   1.389  0.0543 -0.8175 -0.3481
 5314SOL     H142141   2.086   5.078   1.409  0.2795 -0.7385 -0.1551
 5314SOL     H242142   1.982   5.187   1.421  0.6621 -0.5184  1.1876
 5315SOL    OH242143   7.343   0.526   6.322 -0.1113 -0.1531 -0.1648
 5315SOL     H142144   7.438   0.526   6.307 -0.0132  2.3153  0.1276
 5315SOL     H242145   7.333   0.495   6.411  0.6995  2.3335  0.8563
 5316SOL    OH242146   0.944   1.474   1.219  0.3290 -0.3131 -0.1455
 5316SOL     H142147   1.019   1.527   1.195 -1.2636  1.7018 -0.7851
 5316SOL     H242148   0.898   1.525   1.286 -0.7135 -1.2945 -0.0896
 5317SOL    OH242149   1.484   2.209   0.431 -0.4096 -0.6773 -0.0352
 5317SOL     H142150   1.524   2.240   0.350 -1.4655 -0.9766 -0.6905
 5317SOL     H242151   1.530   2.256   0.501  0.4056 -0.3027 -0.8139
 5318SOL    OH242152   1.560   5.602   7.265 -0.2832 -1.0038 -0.4982
 5318SOL     H142153   1.531   5.596   7.174  0.6051  2.6245 -1.0826
 5318SOL     H242154   1.489   5.649   7.309  0.2352 -0.9195  0.2479
 5319SOL    OH242155   6.768   4.710   1.584  0.1883  0.6830  0.8542
 5319SOL     H142156   6.673   4.714   1.574  0.2438  0.4245  0.2074
 5319SOL     H242157   6.801   4.701   1.495  0.7740 -0.0597  1.1415
 5320SOL    OH242158   7.069   1.340   1.035 -0.6503 -0.4067  0.1640
 5320SOL     H142159   7.093   1.432   1.025 -2.6681  0.2431  1.0702
 5320SOL     H242160   7.101   1.316   1.122 -3.2028  0.4744  1.3944
 5321SOL    OH242161   0.293   4.516   0.924  0.4229 -0.4783 -0.4326
 5321SOL     H142162   0.302   4.427   0.890  0.5472 -0.0794 -1.4362
 5321SOL     H242163   0.224   4.509   0.991  1.3817 -1.5893  0.4602
 5322SOL    OH242164   3.535   1.640   6.229  0.2838  0.4694  0.2489
 5322SOL     H142165   3.563   1.549   6.224 -0.8905  0.0843  0.6797
 5322SOL     H242166   3.474   1.650   6.156 -0.7131  0.5187  1.0864
 5323SOL    OH242167   0.435   7.477   1.052  0.5696  0.4094 -0.5619
 5323SOL     H142168   0.367   7.426   1.007  0.1667 -0.7795  1.3082
 5323SOL     H242169   0.517   7.443   1.018  0.2804 -0.7199 -0.1524
 5324SOL    OH242170   2.682   3.318   6.977 -0.5236  0.2860 -0.0425
 5324SOL     H142171   2.774   3.329   6.954 -0.4175  1.7142  0.9756
 5324SOL     H242172   2.654   3.241   6.928  1.2171 -0.1785 -0.3512
 5325SOL    OH242173   4.335   2.839   6.739  0.2639  0.5637 -0.5383
 5325SOL     H142174   4.364   2.883   6.820  1.0696  0.6183 -0.8460
 5325SOL     H242175   4.242   2.823   6.753  0.8607 -1.5343  1.3937
 5326SOL    OH242176   4.196   6.109   1.615  0.6275  0.7066 -0.4312
 5326SOL     H142177   4.191   6.085   1.523  0.9152 -0.3039 -0.1818
 5326SOL     H242178   4.196   6.026   1.662 -1.2910  1.2402  0.5793
 5327SOL    OH242179   6.997   0.759   0.335  0.4634  0.5175  0.2229
 5327SOL     H142180   6.908   0.760   0.300  0.1038 -1.7846  0.9506
 5327SOL     H242181   6.991   0.801   0.420  0.4814  2.1324 -0.5498
 5328SOL    OH242182   0.900   2.407   7.501 -0.4920  0.4255 -0.0068
 5328SOL     H142183   0.833   2.420   7.433  0.5861  0.6753 -1.0415
 5328SOL     H242184   0.853   2.364   7.572 -1.5812 -0.1443 -1.0389
 5329SOL    OH242185   2.259   4.196   0.410 -0.0145  0.5466 -0.2437
 5329SOL     H142186   2.324   4.156   0.468  0.1137  1.6787  0.4023
 5329SOL     H242187   2.230   4.274   0.457 -2.6721 -0.5395 -0.0102
 5330SOL    OH242188   6.798   1.038   6.718 -0.3753 -0.0096  0.1228
 5330SOL     H142189   6.790   1.114   6.776 -1.3620  0.6702 -0.8697
 5330SOL     H242190   6.886   1.005   6.734  0.2920  1.6974  0.1623
 5331SOL    OH242191   0.935   2.999   0.259 -0.0823 -0.0399 -0.4314
 5331SOL     H142192   0.866   2.932   0.259  1.3390 -1.6057  2.3199
 5331SOL     H242193   1.016   2.949   0.253  0.8888  1.6677 -1.7899
 5332SOL    OH242194   4.066   2.773   6.767 -0.3010 -0.5160 -0.6160
 5332SOL     H142195   4.000   2.713   6.802  0.0357 -0.8187 -0.4994
 5332SOL     H242196   4.036   2.860   6.795  0.4552 -0.8277  1.2820
 5333SOL    OH242197   2.387   1.168   6.558  0.0079  0.1704 -0.1681
 5333SOL     H142198   2.463   1.128   6.600  0.3989  1.0193 -0.0380
 5333SOL     H242199   2.315   1.155   6.619  0.1385 -0.2989 -0.1158
 5334SOL    OH242200   7.026   7.906   0.531 -1.2777  0.0746  0.2384
 5334SOL     H142201   6.981   7.822   0.538 -1.3724 -0.1660 -2.8255
 5334SOL     H242202   6.995   7.943   0.449  3.5314  0.2388 -1.6347
 5335SOL    OH242203   0.291   0.493   6.392 -0.1280  0.1118  0.3100
 5335SOL     H142204   0.246   0.494   6.477  0.0784  0.5960  0.4124
 5335SOL     H242205   0.357   0.425   6.401  0.6684  0.9546  0.9396
 5336SOL    OH242206   2.384   3.925   0.936 -0.3752 -0.2219 -0.3908
 5336SOL     H142207   2.419   4.013   0.953  0.4158 -0.2669 -1.7628
 5336SOL     H242208   2.437   3.867   0.989 -0.5785  0.0679  0.1382
 5337SOL    OH242209   5.178   4.997   2.260  0.2746 -0.6812  0.2617
 5337SOL     H142210   5.220   4.916   2.290  0.9279 -0.2207  0.6052
 5337SOL     H242211   5.144   5.037   2.340 -0.6639 -0.9545  0.0098
 5338SOL    OH242212   3.365   3.447   7.825 -0.1893 -0.4881  0.1110
 5338SOL     H142213   3.412   3.514   7.774 -0.1214 -0.2102  0.5323
 5338SOL     H242214   3.435   3.395   7.866 -0.2357 -1.2397 -0.7532
 5339SOL    OH242215   7.837   3.591   1.919  0.3825  0.2604 -0.3661
 5339SOL     H142216   7.804   3.586   1.829 -1.2463 -1.9989  0.3172
 5339SOL     H242217   7.931   3.602   1.909  0.2339 -0.0166 -2.3533
 5340SOL    OH242218   3.984   2.105   0.234 -0.5638 -0.4988  0.1499
 5340SOL     H142219   3.966   2.148   0.151 -1.3798 -1.7773 -0.3441
 5340SOL     H242220   3.924   2.031   0.237  0.3383 -1.2087  1.3055
 5341SOL    OH242221   2.622   5.160   7.358 -0.7216 -0.0770  0.2297
 5341SOL     H142222   2.706   5.115   7.347 -0.0240  1.0679  0.8018
 5341SOL     H242223   2.622   5.227   7.290 -1.8824 -1.0920 -0.8030
 5342SOL    OH242224   4.133   2.647   1.259  0.1212  0.3115 -0.4795
 5342SOL     H142225   4.226   2.629   1.271 -0.0215  0.2461  0.6278
 5342SOL     H242226   4.130   2.720   1.197  0.9916  1.4135  0.7341
 5343SOL    OH242227   1.402   5.196   0.695 -0.0290 -0.1916 -0.2583
 5343SOL     H142228   1.363   5.242   0.769  0.5210 -0.4575  0.1945
 5343SOL     H242229   1.482   5.157   0.730  0.3974 -0.0498 -1.0672
 5344SOL    OH242230   7.424   5.229   7.197 -0.3075  0.0919  0.0779
 5344SOL     H142231   7.377   5.294   7.249  0.3609  1.8889 -1.5310
 5344SOL     H242232   7.465   5.171   7.262  0.4570  2.2321  1.5548
 5345SOL    OH242233   5.427   1.850   7.110  0.0504  0.1022  0.2078
 5345SOL     H142234   5.449   1.816   7.197  1.4618  1.6420  0.4803
 5345SOL     H242235   5.332   1.862   7.112 -0.2105 -1.9539  0.7619
 5346SOL    OH242236   1.855   5.425   7.466 -0.2661 -0.5241  0.3639
 5346SOL     H142237   1.884   5.363   7.533  1.8980 -0.2104 -0.2280
 5346SOL     H242238   1.901   5.396   7.386 -2.7907 -0.9046 -0.9983
 5347SOL    OH242239   4.458   5.202   7.565 -0.2604  0.2098 -0.0451
 5347SOL     H142240   4.472   5.278   7.508  0.0662  0.5788  0.5178
 5347SOL     H242241   4.371   5.170   7.541 -0.6801  1.1581  0.1518
 5348SOL    OH242242   5.839   7.008   6.585 -0.2816  0.4493 -0.1349
 5348SOL     H142243   5.922   6.965   6.606  0.9831  1.9937 -1.7760
 5348SOL     H242244   5.823   6.985   6.493 -0.3776  2.1540 -0.5654
 5349SOL    OH242245   3.924   3.724   8.071 -1.0421  0.0733 -0.2766
 5349SOL     H142246   3.918   3.629   8.059 -0.5018 -0.3039  2.2158
 5349SOL     H242247   4.006   3.748   8.028  0.6039 -1.1530  2.0350
 5350SOL    OH242248   7.564   4.427   7.197 -0.1824 -0.2320 -0.2030
 5350SOL     H142249   7.475   4.410   7.169  0.3577 -2.7194 -0.4870
 5350SOL     H242250   7.591   4.348   7.245  0.2758  2.2813  4.0065
 5351SOL    OH242251   2.648   5.388   1.007 -0.1258 -0.1216  0.3528
 5351SOL     H142252   2.649   5.443   1.085 -0.6250 -2.5352  2.1280
 5351SOL     H242253   2.657   5.299   1.041  0.9982 -1.1169 -2.4580
 5352SOL    OH242254   1.480   0.985   6.557  0.0567 -0.2702  0.1419
 5352SOL     H142255   1.521   1.000   6.643  0.3712  1.1410 -0.2417
 5352SOL     H242256   1.493   0.892   6.541 -0.0285 -0.5579  1.6473
 5353SOL    OH242257   7.427   0.695   7.797 -0.2741 -0.4071 -0.3190
 5353SOL     H142258   7.520   0.686   7.772 -0.2307 -0.2373 -0.2189
 5353SOL     H242259   7.410   0.788   7.789 -0.5536 -0.4920 -0.7543
 5354SOL    OH242260   4.197   1.971   0.567 -0.2044 -0.6988 -0.4626
 5354SOL     H142261   4.261   2.022   0.517  0.7954 -0.4754  1.0082
 5354SOL     H242262   4.120   2.028   0.571  0.0129 -0.3612 -0.9935
 5355SOL    OH242263   4.368   4.183   6.313 -0.2899  0.2919  0.1157
 5355SOL     H142264   4.410   4.105   6.276 -0.1831  0.8927 -1.0562
 5355SOL     H242265   4.417   4.201   6.393  1.3269  0.6355 -0.9240
 5356SOL    OH242266   7.870   3.136   7.369  0.1788 -1.2649  0.0845
 5356SOL     H142267   7.869   3.160   7.462  0.3507 -1.5548  0.1624
 5356SOL     H242268   7.864   3.220   7.323 -0.4185 -1.1554  0.3596
 5357SOL    OH242269   5.260   6.225   7.467 -0.4289 -0.2607 -0.0059
 5357SOL     H142270   5.220   6.142   7.493 -0.4543 -1.1244 -2.7092
 5357SOL     H242271   5.352   6.205   7.452 -0.6227 -0.0346 -1.5930
 5358SOL    OH242272   7.941   6.768   6.748  0.3693  0.1599  0.1704
 5358SOL     H142273   7.968   6.854   6.781  0.6988  0.1805 -0.1463
 5358SOL     H242274   7.901   6.725   6.823 -0.6260  0.9438  0.1013
 5359SOL    OH242275   2.173   3.155   7.126  0.3599 -0.0566  0.5539
 5359SOL     H142276   2.207   3.074   7.162 -1.3111 -0.4649  1.2592
 5359SOL     H242277   2.246   3.217   7.133  0.5928 -0.5686  3.0989
 5360SOL    OH242278   1.001   4.496   0.782  0.5735  0.1523  0.2211
 5360SOL     H142279   1.044   4.411   0.789 -0.1339 -0.2392 -0.2119
 5360SOL     H242280   0.920   4.479   0.735 -1.2481  0.4708  3.1263
 5361SOL    OH242281   7.594   7.055   7.283  0.2395  0.2718  0.5658
 5361SOL     H142282   7.660   7.030   7.348 -0.2592  0.6118  1.2048
 5361SOL     H242283   7.533   7.110   7.331  1.6404  3.2774 -0.9364
 5362SOL    OH242284   5.142   5.059   1.478 -0.8535  0.5394  0.7036
 5362SOL     H142285   5.216   5.059   1.417 -1.1245 -2.1606  0.3434
 5362SOL     H242286   5.179   5.094   1.559  0.2400  1.3695 -0.1353
 5363SOL    OH242287   1.481   2.654   1.170  0.3157  0.1660 -0.0314
 5363SOL     H142288   1.410   2.648   1.107 -0.2597  1.9135  0.4058
 5363SOL     H242289   1.469   2.579   1.228 -0.6832 -0.0009 -0.4433
 5364SOL    OH242290   5.176   4.443   2.269 -0.0335  0.1121  0.0863
 5364SOL     H142291   5.088   4.419   2.297  0.6527 -0.2513  2.0199
 5364SOL     H242292   5.232   4.377   2.310  1.2269  0.9501 -0.2732
 5365SOL    OH242293   4.332   0.155   1.274 -0.0706 -0.6832 -0.0514
 5365SOL     H142294   4.267   0.202   1.327  0.0098  0.5668 -1.0219
 5365SOL     H242295   4.292   0.070   1.258 -1.5463  0.1089 -0.7304
 5366SOL    OH242296   0.954   2.276   1.859  0.5050  0.3247  0.4036
 5366SOL     H142297   0.933   2.277   1.953  0.8139  0.3151  0.4740
 5366SOL     H242298   1.024   2.211   1.851  0.0490 -0.1303  0.0740
 5367SOL    OH242299   3.099   2.715   0.563 -0.2098 -0.3089  0.3799
 5367SOL     H142300   3.018   2.697   0.610  1.1171 -0.9396  2.5160
 5367SOL     H242301   3.151   2.767   0.625  0.7193  0.7421 -1.2529
 5368SOL    OH242302   0.626   0.702   0.112  0.2606 -0.1313 -0.1167
 5368SOL     H142303   0.660   0.613   0.123 -1.6901 -1.3459 -3.0534
 5368SOL     H242304   0.598   0.705   0.020 -1.0564  3.0492  0.3329
 5369SOL    OH242305   2.575   5.510   7.326 -0.2714  0.5812  0.2277
 5369SOL     H142306   2.613   5.479   7.243  1.0199  0.5251  0.8308
 5369SOL     H242307   2.481   5.515   7.309  0.0277  0.9760 -1.3787
 5370SOL    OH242308   3.524   1.903   0.726  0.1159 -0.4216 -0.0494
 5370SOL     H142309   3.443   1.862   0.695 -1.4684  1.6718  1.2072
 5370SOL     H242310   3.548   1.851   0.803 -0.4482 -0.6020  0.0099
 5371SOL    OH242311   5.148   6.345   7.256  0.6295  0.0279  0.1293
 5371SOL     H142312   5.074   6.404   7.266  0.2496 -0.3921 -0.2029
 5371SOL     H242313   5.166   6.314   7.345  0.6436  0.4185  0.2613
 5372SOL    OH242314   1.355   5.597   7.968 -0.5690 -0.1009  0.0096
 5372SOL     H142315   1.297   5.670   7.992  0.7729  1.5111 -1.5423
 5372SOL     H242316   1.333   5.579   7.877  0.7421 -0.0750 -0.3155
 5373SOL    OH242317   6.635   3.849   1.267 -0.4749 -0.1223 -0.3148
 5373SOL     H142318   6.601   3.837   1.356 -0.8914  0.0331 -0.4514
 5373SOL     H242319   6.571   3.803   1.212  0.4789 -1.3669 -0.4200
 5374SOL    OH242320   1.783   3.353   0.264 -0.4089  0.2376  0.2500
 5374SOL     H142321   1.779   3.395   0.178  0.5112  1.8931  0.9934
 5374SOL     H242322   1.830   3.271   0.249 -1.4047 -0.1062 -1.0557
 5375SOL    OH242323   6.599   6.390   0.847 -0.0462  0.2763  0.7545
 5375SOL     H142324   6.657   6.464   0.832  0.1480  0.2963  1.5481
 5375SOL     H242325   6.626   6.355   0.933  0.6556 -1.4350 -0.1294
 5376SOL    OH242326   1.694   6.594   6.089 -0.4438  0.0373  0.2210
 5376SOL     H142327   1.610   6.549   6.088 -1.1260  1.2915 -1.1029
 5376SOL     H242328   1.732   6.572   6.174 -0.9248 -2.6760 -0.2035
 5377SOL    OH242329   0.138   4.775   1.253 -0.0200  0.1983 -0.0933
 5377SOL     H142330   0.135   4.787   1.348  0.7842 -1.0207  0.0938
 5377SOL     H242331   0.126   4.681   1.240  1.7744  0.0776 -1.0889
 5378SOL    OH242332   7.160   3.795   0.410  0.5541  0.2904 -0.4541
 5378SOL     H142333   7.090   3.828   0.355 -0.6629 -1.1499  0.1911
 5378SOL     H242334   7.138   3.825   0.498  0.9165  0.1157 -0.3010
 5379SOL    OH242335   2.088   7.265   1.123  0.0916 -0.3956  0.3279
 5379SOL     H142336   2.131   7.351   1.130  0.4520 -0.7473  2.7445
 5379SOL     H242337   2.022   7.278   1.055  0.3573  1.7228  0.4177
 5380SOL    OH242338   7.085   5.153   1.778 -0.4170 -0.2857 -0.0866
 5380SOL     H142339   6.990   5.151   1.781 -0.4567  0.8946 -0.4975
 5380SOL     H242340   7.112   5.075   1.826 -1.6201 -1.5377 -1.3919
 5381SOL    OH242341   5.200   4.968   8.091 -0.1197 -0.2722 -0.6866
 5381SOL     H142342   5.255   4.890   8.097 -0.6415 -0.5898  0.0298
 5381SOL     H242343   5.211   4.999   8.000  0.2277 -1.0695 -0.9155
 5382SOL    OH242344   3.066   5.445   2.491 -0.1686 -0.6187  0.6584
 5382SOL     H142345   3.012   5.454   2.569 -1.0120 -1.5587  0.1913
 5382SOL     H242346   3.136   5.510   2.502  1.1524 -2.3846  3.3666
 5383SOL    OH242347   0.548   5.201   6.003  0.4412  0.5104 -0.2141
 5383SOL     H142348   0.585   5.153   6.077  1.4992  1.3494 -0.1933
 5383SOL     H242349   0.492   5.267   6.043  0.5522  0.5855 -0.1831
 5384SOL    OH242350   0.860   6.087   7.459 -0.4578  0.1598  0.6706
 5384SOL     H142351   0.924   6.159   7.460 -0.8722  0.5611 -0.6633
 5384SOL     H242352   0.886   6.033   7.384 -1.1514 -0.1660  0.6624
 5385SOL    OH242353   0.084   2.986   7.680  0.0671  0.0863  0.1889
 5385SOL     H142354  -0.008   3.008   7.697 -0.1318 -0.1052 -0.6261
 5385SOL     H242355   0.089   2.892   7.694  0.3018  0.2029  0.9291
 5386SOL    OH242356   0.429   6.565   7.079  0.4135  0.4547 -0.1482
 5386SOL     H142357   0.484   6.533   7.151 -1.5361  1.2545  1.7303
 5386SOL     H242358   0.467   6.650   7.056  2.0919 -0.5763 -1.2562
 5387SOL    OH242359   5.166   7.042   0.463  0.0849 -0.3220  0.0718
 5387SOL     H142360   5.158   7.114   0.402  0.2082  1.0273  1.6096
 5387SOL     H242361   5.232   6.984   0.424 -2.6745 -1.5169 -2.9679
 5388SOL    OH242362   1.722   3.980   2.386  0.2666 -0.4311 -0.7427
 5388SOL     H142363   1.755   3.900   2.345  1.3856 -1.2356  1.5990
 5388SOL     H242364   1.641   3.952   2.430  1.5845 -0.7602  1.5753
 5389SOL    OH242365   2.232   5.379   7.899  0.2876 -0.1378 -0.0770
 5389SOL     H142366   2.288   5.454   7.918 -0.6407  0.6479 -0.4354
 5389SOL     H242367   2.251   5.358   7.807 -0.3053  0.3813 -0.3179
 5390SOL    OH242368   3.989   6.861   1.627  0.0414 -0.0393 -0.0777
 5390SOL     H142369   4.025   6.773   1.640  1.2150  0.4850  0.2469
 5390SOL     H242370   3.979   6.869   1.532  1.4831  0.0965 -0.2152
 5391SOL    OH242371   0.761   6.901   7.939  0.2104  0.8467 -0.3407
 5391SOL     H142372   0.733   6.990   7.959  2.4651  2.0645 -2.3928
 5391SOL     H242373   0.824   6.879   8.007 -0.2547  0.8576  0.0935
 5392SOL    OH242374   3.510   1.266   2.609  0.0365 -0.0671 -0.2088
 5392SOL     H142375   3.443   1.323   2.573 -0.8957  1.0078  3.0298
 5392SOL     H242376   3.561   1.322   2.668  1.5138 -1.6795  0.1208
 5393SOL    OH242377   2.333   7.103   0.319  0.4462 -0.2951  0.0679
 5393SOL     H142378   2.388   7.028   0.342  0.8035  0.3131  1.2465
 5393SOL     H242379   2.314   7.092   0.226  2.1933 -0.7595 -0.2493
 5394SOL    OH242380   6.380   2.286   0.704 -0.0240  0.4804 -0.4165
 5394SOL     H142381   6.348   2.263   0.617  0.6038  3.7808 -1.6188
 5394SOL     H242382   6.301   2.312   0.753  0.0139  2.2893 -1.2699
 5395SOL    OH242383   3.765   2.058   7.091  0.4563  0.0897  0.4221
 5395SOL     H142384   3.753   2.131   7.152  1.7100  0.1899  0.5668
 5395SOL     H242385   3.836   2.086   7.033  1.8413 -1.5200  1.2932
 5396SOL    OH242386   5.815   0.245   7.373 -0.3010  0.2935  0.6445
 5396SOL     H142387   5.829   0.151   7.385  0.4360  0.4954  1.4039
 5396SOL     H242388   5.877   0.270   7.304  0.0543  0.3654  0.9868
 5397SOL    OH242389   5.062   0.853   7.216 -0.8807 -0.3244  0.4113
 5397SOL     H142390   4.975   0.865   7.178 -1.3434 -0.6644  1.3497
 5397SOL     H242391   5.087   0.940   7.247 -0.5142 -0.0522 -0.6317
 5398SOL    OH242392   2.233   7.116   5.844 -0.1423  0.3343 -0.4457
 5398SOL     H142393   2.141   7.120   5.820 -0.5876  3.4557  1.4700
 5398SOL     H242394   2.236   7.058   5.919 -0.6101  0.4965 -0.3027
 5399SOL    OH242395   5.623   1.262   0.396  0.2879  0.2542 -0.7900
 5399SOL     H142396   5.604   1.293   0.484  1.4622  3.3987 -1.6026
 5399SOL     H242397   5.707   1.301   0.374  1.3854 -2.7587 -2.2770
 5400SOL    OH242398   4.909   2.672   7.659 -0.4500 -0.7316  0.0804
 5400SOL     H142399   4.979   2.736   7.673 -0.7813  0.1427 -1.9679
 5400SOL     H242400   4.948   2.608   7.600 -0.8902 -1.0832  0.1774
 5401SOL    OH242401   2.778   6.007   1.991 -0.5114 -0.1065 -0.1351
 5401SOL     H142402   2.777   6.027   1.897 -0.0756 -2.0667 -0.5847
 5401SOL     H242403   2.710   5.941   2.002 -0.4060 -0.0474  0.8947
 5402SOL    OH242404   0.888   3.540   1.706  0.2110 -1.2267  0.3948
 5402SOL     H142405   0.960   3.542   1.769  0.9877 -1.3356 -0.4810
 5402SOL     H242406   0.931   3.539   1.620 -0.8302 -1.8413 -0.1258
 5403SOL    OH242407   2.395   0.477   0.347  0.0088 -0.7531 -0.0324
 5403SOL     H142408   2.432   0.564   0.360  0.1419 -0.9538  0.9479
 5403SOL     H242409   2.463   0.429   0.301  1.6274 -1.5785  3.0854
 5404SOL    OH242410   7.573   5.440   1.116 -0.3622 -0.2313 -0.4671
 5404SOL     H142411   7.484   5.422   1.146  0.1969  0.6675  1.7962
 5404SOL     H242412   7.628   5.373   1.157  0.1420 -0.2534 -1.1555
 5405SOL    OH242413   5.299   7.167   6.991  0.3397 -0.1588  0.0709
 5405SOL     H142414   5.367   7.139   6.929  0.7135 -0.5550  0.6525
 5405SOL     H242415   5.315   7.261   7.002 -0.1057  0.0314 -0.8921
 5406SOL    OH242416   5.394   0.008   1.105 -0.4341 -0.4133 -0.0952
 5406SOL     H142417   5.485  -0.011   1.132 -0.7051 -0.4556  0.8083
 5406SOL     H242418   5.399   0.092   1.059  0.0568 -0.4014 -0.0218
 5407SOL    OH242419   4.195   4.299   6.484 -0.0669  0.0469  0.0085
 5407SOL     H142420   4.199   4.224   6.425 -0.0083  1.0684 -1.3190
 5407SOL     H242421   4.175   4.261   6.569  1.3080 -1.5884 -0.3751
 5408SOL    OH242422   0.884   3.132   6.521 -0.0247 -0.0354  0.2081
 5408SOL     H142423   0.905   3.149   6.429 -0.4449 -0.4690  0.0283
 5408SOL     H242424   0.796   3.095   6.518 -0.7598  1.6503  0.9443
 5409SOL    OH242425   3.204   1.084   0.068 -0.1155  0.3138  0.0137
 5409SOL     H142426   3.171   1.148   0.132 -1.1847 -1.9426  1.7818
 5409SOL     H242427   3.298   1.079   0.086 -0.3321  0.0396  1.0983
 5410SOL    OH242428   0.797   1.215   1.376 -0.7897  0.2046  0.0754
 5410SOL     H142429   0.796   1.307   1.403  0.0209  0.7583 -1.7009
 5410SOL     H242430   0.877   1.206   1.325 -1.4612 -1.2020 -0.7543
 5411SOL    OH242431   1.843   5.209   1.534 -0.6037  0.1702  0.2010
 5411SOL     H142432   1.884   5.221   1.620  1.4440  2.7621 -1.0608
 5411SOL     H242433   1.758   5.252   1.541 -0.5600  0.1234  1.0177
 5412SOL    OH242434   6.010   7.304   0.430 -0.1755 -0.7772  0.3470
 5412SOL     H142435   5.995   7.329   0.521 -0.0020  0.0242  0.1516
 5412SOL     H242436   5.952   7.229   0.416  0.0547 -1.1231  1.2164
 5413SOL    OH242437   2.308   1.972   6.845  0.2769 -0.1397 -0.2877
 5413SOL     H142438   2.269   2.056   6.822 -0.3397 -1.2125 -3.3031
 5413SOL     H242439   2.239   1.925   6.892 -0.9217 -0.6796 -2.5516
 5414SOL    OH242440   2.989   0.159   6.805  0.2620 -0.3425  0.7006
 5414SOL     H142441   3.057   0.221   6.777  1.5910 -1.9286  0.3569
 5414SOL     H242442   3.009   0.140   6.896 -1.0512  0.8747  1.2653
 5415SOL    OH242443   1.884   3.671   6.055 -0.0851  0.3321  0.4152
 5415SOL     H142444   1.978   3.664   6.074 -0.3450 -2.3242  0.9172
 5415SOL     H242445   1.852   3.733   6.120  1.2003  0.7605  0.6692
 5416SOL    OH242446   6.246   3.679   7.873  0.2126  0.4076  0.0474
 5416SOL     H142447   6.333   3.646   7.892  0.1394  1.2079  1.8615
 5416SOL     H242448   6.195   3.601   7.848  1.4377 -0.0436 -1.1129
 5417SOL    OH242449   1.275   0.574   6.012 -0.5157  0.3568 -0.5097
 5417SOL     H142450   1.281   0.479   6.007 -0.4225  0.3970 -1.2621
 5417SOL     H242451   1.189   0.591   6.050 -0.4366 -0.0316 -0.1587
 5418SOL    OH242452   1.433   5.102   1.321 -0.8879 -0.3165  0.7612
 5418SOL     H142453   1.412   5.153   1.399 -1.5234 -0.1796  0.5015
 5418SOL     H242454   1.478   5.164   1.264 -0.2821 -0.4567  1.0780
 5419SOL    OH242455   3.986   4.314   0.377  0.2890 -0.1746 -0.0292
 5419SOL     H142456   3.947   4.232   0.410  2.0428 -0.8740  0.3481
 5419SOL     H242457   4.070   4.320   0.422  0.0770  1.9803  0.1266
 5420SOL    OH242458   5.253   4.692   2.240 -0.0565  0.3617  0.6064
 5420SOL     H142459   5.213   4.606   2.253  0.0704  0.5062  1.9757
 5420SOL     H242460   5.331   4.674   2.188  0.4028 -0.4445  1.5614
 5421SOL    OH242461   6.687   7.404   0.851 -0.4539  0.1459  0.7408
 5421SOL     H142462   6.632   7.481   0.831  1.6448  1.4580 -0.1631
 5421SOL     H242463   6.748   7.435   0.917  0.3691 -0.7698  0.4132
 5422SOL    OH242464   1.520   4.398   7.835  0.1178  0.2650 -0.2281
 5422SOL     H142465   1.448   4.344   7.802  0.4659 -0.3706  0.0254
 5422SOL     H242466   1.552   4.350   7.912  0.9209  0.4501 -0.4411
 5423SOL    OH242467   7.911   6.714   7.525 -0.0776  0.3051  0.5677
 5423SOL     H142468   7.993   6.760   7.541  0.4460 -0.2961 -0.3583
 5423SOL     H242469   7.927   6.661   7.447 -1.3119  0.1067  0.4251
 5424SOL    OH242470   3.513   2.887   0.643 -0.0213  0.1545 -0.1243
 5424SOL     H142471   3.559   2.885   0.727  1.3638 -1.0765 -0.8679
 5424SOL     H242472   3.427   2.923   0.662  0.9409  1.6372  1.4838
 5425SOL    OH242473   5.470   6.099   6.792  0.7388  0.0188  0.1280
 5425SOL     H142474   5.533   6.029   6.814  0.0784 -0.3115  0.9831
 5425SOL     H242475   5.387   6.054   6.781  0.7544  0.3904 -1.5639
 5426SOL    OH242476   3.701   1.442   0.738 -0.1059  0.2466  0.5727
 5426SOL     H142477   3.701   1.353   0.703 -1.3699  0.6616 -0.5342
 5426SOL     H242478   3.621   1.448   0.790 -1.2504  1.4215 -1.2479
 5427SOL    OH242479   7.136   1.024   1.591  0.6011  0.4446 -0.3772
 5427SOL     H142480   7.092   1.108   1.574  0.5757  0.4810 -0.1289
 5427SOL     H242481   7.219   1.031   1.544 -0.5182 -0.4206 -2.5761
 5428SOL    OH242482   7.264   5.055   1.214 -0.3231  0.0085  0.5829
 5428SOL     H142483   7.249   4.966   1.245 -0.2584 -0.6379 -1.1952
 5428SOL     H242484   7.217   5.060   1.130  1.9690  0.7430 -0.7157
 5429SOL    OH242485   3.191   5.309   0.650 -0.3400 -0.2816  0.1572
 5429SOL     H142486   3.168   5.401   0.662 -0.3236 -0.4896  1.7997
 5429SOL     H242487   3.162   5.290   0.560 -0.3389  1.3091 -0.2086
 5430SOL    OH242488   6.961   4.666   1.042  0.1600  0.2250 -0.0323
 5430SOL     H142489   7.029   4.734   1.044  1.5431 -1.0986 -1.0674
 5430SOL     H242490   6.962   4.629   1.130  1.0372 -0.0307 -0.1482
 5431SOL    OH242491   5.566   4.292   1.928 -0.4468  0.6394  0.7924
 5431SOL     H142492   5.557   4.317   2.020 -1.5778  2.1980  0.2656
 5431SOL     H242493   5.488   4.239   1.910  0.2721 -0.4996  0.9921
 5432SOL    OH242494   0.968   5.628   1.456  0.1262 -0.2090  0.1624
 5432SOL     H142495   0.910   5.612   1.530  0.1014 -0.5515  0.0699
 5432SOL     H242496   0.909   5.650   1.383  0.1404 -0.0783  0.1890
 5433SOL    OH242497   7.500   6.336   5.894  0.0065  0.6426  0.7756
 5433SOL     H142498   7.587   6.307   5.922 -0.5704  0.4024  2.4199
 5433SOL     H242499   7.464   6.260   5.848  1.0542  1.1028 -0.8272
 5434SOL    OH242500   1.889   4.418   7.640 -0.2856 -0.7949 -0.2664
 5434SOL     H142501   1.845   4.344   7.682 -1.1411 -1.4349 -2.2448
 5434SOL     H242502   1.907   4.388   7.551 -0.0237  1.1260 -0.8820
 5435SOL    OH242503   1.661   1.634   7.853  0.1414  0.0198  0.3316
 5435SOL     H142504   1.656   1.545   7.817  0.8299  0.7461 -1.6320
 5435SOL     H242505   1.613   1.628   7.935 -0.9922 -1.8686 -0.4023
 5436SOL    OH242506   7.410   5.666   7.033 -0.1958  0.1962  0.1792
 5436SOL     H142507   7.379   5.725   7.102  1.6609 -0.3904  1.5586
 5436SOL     H242508   7.454   5.595   7.080  0.1894 -0.7620 -1.5837
 5437SOL    OH242509   3.650   3.742   1.132  0.0091  0.0240  0.3272
 5437SOL     H142510   3.732   3.709   1.168  0.3492  0.0590 -0.4288
 5437SOL     H242511   3.624   3.811   1.193  0.3581 -0.2177  0.7545
 5438SOL    OH242512   3.726   5.577   1.572 -0.0635  0.0241 -0.0642
 5438SOL     H142513   3.775   5.542   1.497  1.6554  0.1897  0.9554
 5438SOL     H242514   3.751   5.669   1.576 -0.5062  0.1243  0.4415
 5439SOL    OH242515   0.292   1.884   1.382 -0.1305  0.0276 -0.0493
 5439SOL     H142516   0.254   1.926   1.305  0.7274  0.3075 -0.3283
 5439SOL     H242517   0.244   1.802   1.391  1.3372 -1.1268 -2.2948
 5440SOL    OH242518   3.510   4.831   1.127  0.7504  0.7805 -0.3954
 5440SOL     H142519   3.433   4.877   1.094  0.8008  0.1044 -1.4508
 5440SOL     H242520   3.516   4.858   1.219 -2.1767 -1.0578  0.3876
 5441SOL    OH242521   1.691   6.241   8.267 -0.0377  0.4505  0.4421
 5441SOL     H142522   1.611   6.191   8.252  0.4538 -0.2555  0.1464
 5441SOL     H242523   1.741   6.231   8.187  0.6536  0.3214  0.8833
 5442SOL    OH242524   7.848   3.881   1.512 -0.0685 -0.5958  0.6372
 5442SOL     H142525   7.894   3.856   1.432 -0.6939  0.0791  0.0553
 5442SOL     H242526   7.869   3.973   1.525 -0.2592 -0.6079  1.0497
 5443SOL    OH242527   7.481   1.591   0.449 -0.7834  0.1400  0.2199
 5443SOL     H142528   7.482   1.542   0.367 -1.7511 -1.0850  0.9052
 5443SOL     H242529   7.398   1.639   0.447 -0.3997  0.7889  0.0865
 5444SOL    OH242530   5.649   7.656   7.526  0.0925  0.2643 -0.0473
 5444SOL     H142531   5.729   7.687   7.484  0.1847 -0.8316 -0.7066
 5444SOL     H242532   5.587   7.728   7.516  1.3085  1.5642  1.4382
 5445SOL    OH242533   2.243   7.059   1.170 -0.6226  0.1140  0.4066
 5445SOL     H142534   2.200   7.142   1.150 -1.8974 -0.5494  0.3546
 5445SOL     H242535   2.220   7.002   1.097 -0.1452 -0.4362  0.6807
 5446SOL    OH242536   3.834   3.126   6.475 -0.3185 -0.3231 -0.0995
 5446SOL     H142537   3.846   3.219   6.457 -0.4923 -0.1986  0.4403
 5446SOL     H242538   3.904   3.084   6.425  0.7334  0.2157  0.9050
 5447SOL    OH242539   3.428   7.457   8.029  0.2417 -0.1152 -0.4874
 5447SOL     H142540   3.370   7.491   7.961  0.6866 -2.3544 -2.0395
 5447SOL     H242541   3.508   7.508   8.020 -0.4806  1.0969 -0.1620
 5448SOL    OH242542   4.651   6.773   0.749  0.1627 -0.5163  0.2731
 5448SOL     H142543   4.585   6.704   0.756  0.5368 -0.8619  0.4262
 5448SOL     H242544   4.639   6.810   0.661 -1.0341  0.2437  0.7531
 5449SOL    OH242545   0.198   0.360   1.632  0.5581 -0.4179 -0.0533
 5449SOL     H142546   0.189   0.455   1.637 -0.1920 -0.4899 -0.0733
 5449SOL     H242547   0.170   0.338   1.543 -3.3350 -1.1287  1.2929
 5450SOL    OH242548   7.721   7.081   8.157  0.2293 -0.0688  0.5063
 5450SOL     H142549   7.802   7.097   8.109  0.4164 -2.6351 -0.1085
 5450SOL     H242550   7.717   6.986   8.166 -2.3415  0.0664  1.1835
 5451SOL    OH242551   7.821   1.818   1.634 -0.4186 -0.0435  0.4725
 5451SOL     H142552   7.726   1.817   1.626 -0.5995  0.0534  2.2652
 5451SOL     H242553   7.839   1.760   1.708  0.7083  1.9354  1.8079
 5452SOL    OH242554   0.039   5.201   6.924 -0.2378  0.7736  0.5482
 5452SOL     H142555   0.132   5.221   6.935 -0.2013  0.2477  1.1962
 5452SOL     H242556   0.018   5.139   6.994 -1.5192  2.2951  1.5397
 5453SOL    OH242557   6.369   7.895   7.197  0.3978  0.1986 -0.0162
 5453SOL     H142558   6.394   7.804   7.214  0.0466  0.3630  1.4361
 5453SOL     H242559   6.285   7.906   7.242  1.3280  1.7581  1.4317
 5454SOL    OH242560   2.228   6.477   7.572  0.0284  0.1722  0.2824
 5454SOL     H142561   2.191   6.528   7.500 -1.0220  1.1569  1.5004
 5454SOL     H242562   2.171   6.400   7.579  1.0011 -0.6804 -0.8741
 5455SOL    OH242563   0.682   7.588   1.534  0.0970  0.1249  0.4894
 5455SOL     H142564   0.664   7.495   1.545  0.7987  0.1700  2.2143
 5455SOL     H242565   0.659   7.607   1.443 -2.2883 -1.1997  0.7796
 5456SOL    OH242566   7.943   0.160   6.873  0.3127  0.2234  0.0455
 5456SOL     H142567   7.917   0.144   6.964  2.5294 -1.2883  0.4252
 5456SOL     H242568   8.018   0.103   6.858  0.9844  1.6286 -2.2522
 5457SOL    OH242569   3.025   7.054   1.450  0.8370 -0.5004 -0.3570
 5457SOL     H142570   2.996   7.006   1.374  1.1266 -1.5050  0.1603
 5457SOL     H242571   3.113   7.083   1.428  0.9816 -0.9273 -0.3463
 5458SOL    OH242572   6.882   5.687   1.427 -0.3902  0.1525  0.3336
 5458SOL     H142573   6.846   5.617   1.371 -1.3710  0.9520 -0.0529
 5458SOL     H242574   6.808   5.745   1.442 -0.4587 -0.6476  3.4437
 5459SOL    OH242575   3.920   7.461   1.332 -0.6124 -0.3957  0.0547
 5459SOL     H142576   3.839   7.468   1.283 -0.4822  0.2791 -0.0733
 5459SOL     H242577   3.924   7.370   1.360 -0.6069 -0.8302 -1.3143
 5460SOL    OH242578   5.301   4.000   2.307  0.5692 -0.2081  0.1735
 5460SOL     H142579   5.330   4.046   2.228 -1.4104  1.2873  0.2733
 5460SOL     H242580   5.219   4.043   2.331  0.1944 -1.8652  1.9983
 5461SOL    OH242581   0.022   3.549   6.998 -0.2265  0.1511 -0.6471
 5461SOL     H142582  -0.032   3.627   7.012 -1.5816 -0.7929 -0.4695
 5461SOL     H242583   0.111   3.577   7.019 -0.8890  1.2790  0.7662
 5462SOL    OH242584   3.270   6.771   7.075  0.4842 -0.1688  0.1433
 5462SOL     H142585   3.268   6.736   6.986  0.1117  1.2723 -0.4232
 5462SOL     H242586   3.363   6.778   7.096  0.6360  1.4961 -0.9609
 5463SOL    OH242587   6.343   2.016   1.555 -0.1129  0.5014 -0.3537
 5463SOL     H142588   6.396   1.937   1.566  0.8982  1.4229  1.7621
 5463SOL     H242589   6.407   2.086   1.543 -0.8175  1.5396  1.5821
 5464SOL    OH242590   7.577   7.273   6.317 -0.2324  0.0820 -0.1948
 5464SOL     H142591   7.554   7.218   6.242 -1.6906 -0.7758  0.8667
 5464SOL     H242592   7.540   7.358   6.296 -0.3409 -0.0620 -0.6003
 5465SOL    OH242593   3.887   5.109   0.366  0.0260 -0.3356  0.2682
 5465SOL     H142594   3.851   5.117   0.454 -0.3893 -2.0736  0.2810
 5465SOL     H242595   3.812   5.116   0.308  0.3569  1.2622  0.0151
 5466SOL    OH242596   5.761   4.586   0.812  0.3353 -0.1011  0.1896
 5466SOL     H142597   5.738   4.560   0.723 -4.3498  1.4438  0.7713
 5466SOL     H242598   5.740   4.510   0.866  1.0696 -0.2652  0.2543
 5467SOL    OH242599   0.503   3.179   6.109 -0.3300  0.6615  0.0069
 5467SOL     H142600   0.584   3.148   6.067 -0.3018  1.1550 -0.3176
 5467SOL     H242601   0.452   3.217   6.037 -0.2355  1.6098  0.4272
 5468SOL    OH242602   5.852   2.983   7.655 -0.7877  0.1856  0.4653
 5468SOL     H142603   5.895   2.950   7.576 -1.9132  0.8281 -0.4497
 5468SOL     H242604   5.778   2.923   7.668 -0.5002 -0.0184  1.1281
 5469SOL    OH242605   2.269   0.610   1.514 -0.3026  0.0212 -0.2004
 5469SOL     H142606   2.311   0.565   1.441 -0.0378 -0.0110 -0.0309
 5469SOL     H242607   2.177   0.615   1.490 -0.2092  0.0487 -0.5562
 5470SOL    OH242608   5.085   0.425   7.382 -0.2775  0.1105  0.0029
 5470SOL     H142609   5.163   0.456   7.337  0.0319 -0.5636  0.0767
 5470SOL     H242610   5.050   0.503   7.425  0.1636  0.4816 -0.3056
 5471SOL    OH242611   3.773   0.285   8.092  0.0385  0.7392 -0.1934
 5471SOL     H142612   3.763   0.204   8.142  1.4624  0.4742 -0.3257
 5471SOL     H242613   3.741   0.263   8.005  1.7985 -0.1373 -0.6470
 5472SOL    OH242614   1.002   2.243   0.482 -0.3243  0.3874 -0.1539
 5472SOL     H142615   0.964   2.326   0.511  0.6280  1.1699 -1.0761
 5472SOL     H242616   0.949   2.176   0.524 -0.3312  1.4757  1.6211
 5473SOL    OH242617   0.955   2.099   6.104 -0.3205  0.1840  0.8959
 5473SOL     H142618   1.037   2.108   6.152 -1.1532 -2.2215  2.8608
 5473SOL     H242619   0.909   2.182   6.120  1.6680  1.5746 -0.2459
 5474SOL    OH242620   3.191   2.025   7.329 -0.1659  0.1525 -0.5078
 5474SOL     H142621   3.187   1.966   7.404 -1.5446 -0.9236 -1.3859
 5474SOL     H242622   3.107   2.012   7.284  1.2867 -0.4383 -3.1269
 5475SOL    OH242623   2.864   3.478   6.598  0.1135 -0.2453 -0.1096
 5475SOL     H142624   2.928   3.550   6.600  1.3330 -1.2039 -2.2489
 5475SOL     H242625   2.852   3.460   6.504 -2.3842 -0.9115  0.3132
 5476SOL    OH242626   0.572   3.831   7.392  0.3495 -0.3275 -0.3739
 5476SOL     H142627   0.496   3.864   7.344 -0.1519  0.3585  0.8750
 5476SOL     H242628   0.536   3.803   7.476  1.5150  0.2039  0.3017
 5477SOL    OH242629   6.585   6.362   0.425  0.6339 -0.6395  0.2051
 5477SOL     H142630   6.562   6.310   0.502 -0.6906  0.0429  0.2946
 5477SOL     H242631   6.642   6.431   0.458  0.2625 -0.4900  0.5350
 5478SOL    OH242632   2.449   4.911   7.644  0.1122 -0.0164 -0.1694
 5478SOL     H142633   2.383   4.868   7.698 -0.2058 -0.4760 -0.9142
 5478SOL     H242634   2.501   4.840   7.608  0.7714  0.3246  0.0969
 5479SOL    OH242635   2.144   2.710   7.838 -0.2085 -0.4666 -0.0656
 5479SOL     H142636   2.073   2.689   7.899 -0.1445 -2.8468 -0.7335
 5479SOL     H242637   2.101   2.719   7.753  0.1646 -1.0715 -0.3270
 5480SOL    OH242638   4.469   1.263   1.971  0.0002 -0.1427 -0.0611
 5480SOL     H142639   4.537   1.270   2.038  0.3868  1.1008 -0.5746
 5480SOL     H242640   4.395   1.313   2.006  0.4477  1.0948 -0.8550
 5481SOL    OH242641   6.745   0.461   5.676  0.0702  0.0465 -0.5490
 5481SOL     H142642   6.652   0.480   5.666  0.2328  1.3311  0.1660
 5481SOL     H242643   6.749   0.371   5.707 -1.0172  0.4825  0.9148
 5482SOL    OH242644   4.350   6.315   6.240 -0.8162 -0.5720  0.0597
 5482SOL     H142645   4.409   6.351   6.173  0.3451 -0.9953  0.8401
 5482SOL     H242646   4.355   6.221   6.228 -0.3521 -0.6631  0.9444
 5483SOL    OH242647   5.198   0.467   0.095  0.3447 -0.4618  0.0366
 5483SOL     H142648   5.187   0.527   0.169  0.4558 -0.4304  0.0283
 5483SOL     H242649   5.288   0.483   0.065  0.6798 -1.2654  0.5911
 5484SOL    OH242650   4.244   7.219   0.673 -0.3721 -0.2982  0.2466
 5484SOL     H142651   4.339   7.208   0.661 -0.1011  0.5153  1.5586
 5484SOL     H242652   4.209   7.130   0.661  0.7010 -0.8504  1.0487
 5485SOL    OH242653   6.286   1.418   6.779  0.3704 -0.2712  0.6144
 5485SOL     H142654   6.287   1.513   6.767 -0.9861 -0.4814 -1.2806
 5485SOL     H242655   6.282   1.382   6.690 -0.1450 -2.0910  1.3471
 5486SOL    OH242656   1.337   3.196   7.769  0.6605 -0.1024 -0.0403
 5486SOL     H142657   1.293   3.269   7.724  1.0363 -0.3242 -0.7829
 5486SOL     H242658   1.401   3.238   7.826  0.0179  0.1946  0.4715
 5487SOL    OH242659   6.385   6.407   8.233 -0.3248 -0.5109 -0.4568
 5487SOL     H142660   6.478   6.433   8.233 -0.5093  0.2237 -2.5321
 5487SOL     H242661   6.340   6.480   8.275  0.0993 -1.2078  1.2618
 5488SOL    OH242662   1.793   3.498   7.280 -0.2338 -0.0876 -0.1350
 5488SOL     H142663   1.739   3.441   7.334 -2.2035 -0.3162 -2.2871
 5488SOL     H242664   1.746   3.504   7.196  1.2106  2.6539 -0.8059
 5489SOL    OH242665   2.394   1.874   2.197  0.3332  0.1333  0.0528
 5489SOL     H142666   2.420   1.782   2.193 -0.7532 -0.1534 -0.5566
 5489SOL     H242667   2.338   1.887   2.120  0.3830  1.2768  0.1953
 5490SOL    OH242668   0.444   3.211   1.406 -0.3366  0.3401  0.2210
 5490SOL     H142669   0.465   3.120   1.426  0.4734  0.3856 -0.3974
 5490SOL     H242670   0.398   3.243   1.484 -0.8737 -0.6760  0.3248
 5491SOL    OH242671   7.041   1.203   7.646 -0.3030  0.3188 -0.2629
 5491SOL     H142672   7.028   1.298   7.641 -1.0321  0.2472  0.2448
 5491SOL     H242673   7.136   1.192   7.642 -0.0629  1.2336  2.1078
 5492SOL    OH242674   4.284   5.489   7.433  0.4230  0.2680  0.0051
 5492SOL     H142675   4.303   5.577   7.400  0.9897  0.3076  0.4222
 5492SOL     H242676   4.313   5.431   7.364 -1.4402  0.4591 -0.9549
 5493SOL    OH242677   5.086   0.126   2.215  0.3924  0.2148 -0.4825
 5493SOL     H142678   4.999   0.087   2.216  0.8667 -0.8512 -0.7250
 5493SOL     H242679   5.128   0.091   2.137  0.7851  1.2956 -0.7675
 5494SOL    OH242680   4.511   1.703   7.298  0.4360 -0.0891 -0.3044
 5494SOL     H142681   4.557   1.779   7.263 -0.3323  0.0239 -1.0748
 5494SOL     H242682   4.529   1.705   7.392  0.7536  0.8046 -0.3818
 5495SOL    OH242683   2.581   3.893   2.210  0.1927  0.1122 -0.0314
 5495SOL     H142684   2.519   3.965   2.199  1.6904  1.1229 -2.2024
 5495SOL     H242685   2.662   3.925   2.169  1.2670 -2.2873  0.1594
 5496SOL    OH242686   7.337   1.597   1.526  0.2041 -0.2461  0.3448
 5496SOL     H142687   7.253   1.625   1.490  0.2480 -0.0983  0.3562
 5496SOL     H242688   7.361   1.666   1.588  0.4092 -0.2114  0.2250
 5497SOL    OH242689   4.770   7.099   7.239 -0.5003 -0.2706 -0.7044
 5497SOL     H142690   4.796   7.050   7.161 -1.0268  1.4507 -2.0169
 5497SOL     H242691   4.678   7.122   7.222 -0.9282 -0.7580  0.9034
 5498SOL    OH242692   6.349   2.619   8.003  0.3716  0.3291  0.0008
 5498SOL     H142693   6.311   2.534   7.980 -1.3711  1.0595  0.1775
 5498SOL     H242694   6.381   2.607   8.093 -0.2161 -0.0285  0.1677
 5499SOL    OH242695   7.802   0.620   1.629 -0.2826 -0.0877  0.4405
 5499SOL     H142696   7.859   0.695   1.614 -0.0033  0.0634  2.1333
 5499SOL     H242697   7.851   0.545   1.593 -0.5673  0.5344 -1.2499
 5500SOL    OH242698   7.496   3.234   7.328  0.3613 -0.3963  0.1293
 5500SOL     H142699   7.499   3.321   7.368 -1.4729 -0.0999 -0.3125
 5500SOL     H242700   7.472   3.251   7.237 -1.3609 -1.4368  0.3667
 5501SOL    OH242701   3.745   4.063   6.720  0.2332  0.2748  0.4733
 5501SOL     H142702   3.834   4.055   6.754 -0.3456 -1.7047  1.6669
 5501SOL     H242703   3.749   4.133   6.655  2.5544  0.4919  0.8206
 5502SOL    OH242704   5.341   6.495   0.842 -0.0073 -0.5742 -0.1015
 5502SOL     H142705   5.353   6.422   0.781  2.9760  0.0130 -0.3342
 5502SOL     H242706   5.354   6.573   0.788  0.5424 -0.0023  0.8415
 5503SOL    OH242707   3.129   0.222   0.300 -0.0171 -0.0695 -0.3188
 5503SOL     H142708   3.083   0.176   0.370 -1.3801 -0.6375 -1.5326
 5503SOL     H242709   3.185   0.155   0.260 -0.0572 -0.0239 -0.4529
 5504SOL    OH242710   1.103   3.070   6.681  0.0746 -0.2585  0.4226
 5504SOL     H142711   1.148   3.001   6.632 -0.1000  0.1215 -0.2740
 5504SOL     H242712   1.026   3.091   6.628 -0.9440 -0.9002  1.5993
 5505SOL    OH242713   3.313   4.334   2.055  0.3105 -0.1895  0.1933
 5505SOL     H142714   3.393   4.313   2.006 -0.2376 -0.8268 -0.4364
 5505SOL     H242715   3.291   4.423   2.028  0.6713 -0.0980  0.1920
 5506SOL    OH242716   5.975   4.589   1.355  0.3226 -0.2373 -0.0607
 5506SOL     H142717   6.015   4.589   1.268  0.4924  1.3705  0.0054
 5506SOL     H242718   6.039   4.546   1.411  0.3000 -1.0938 -0.6826
 5507SOL    OH242719   0.914   4.540   1.486  0.4675  0.1334 -0.4387
 5507SOL     H142720   0.915   4.507   1.576  1.0512  0.5226 -0.2952
 5507SOL     H242721   0.983   4.490   1.442 -0.8867 -1.1827 -1.0884
 5508SOL    OH242722   6.603   2.373   2.345 -0.7048  0.0458  0.1164
 5508SOL     H142723   6.551   2.373   2.425 -1.1623 -1.1586 -0.1649
 5508SOL     H242724   6.674   2.311   2.363 -0.3938  0.3251 -0.1496
 5509SOL    OH242725   0.785   2.240   7.689  0.0904  0.1788  0.1798
 5509SOL     H142726   0.734   2.174   7.737  1.7121 -0.6667  0.7994
 5509SOL     H242727   0.865   2.250   7.741  0.3477  1.8296 -0.5125
 5510SOL    OH242728   2.442   4.925   7.304  0.8794 -0.1316  0.1562
 5510SOL     H142729   2.468   5.004   7.257  0.6835 -0.3601 -0.3383
 5510SOL     H242730   2.407   4.958   7.388 -0.6399  0.4190 -0.6711
 5511SOL    OH242731   5.238   7.665   7.817  0.2853 -0.4705  0.0063
 5511SOL     H142732   5.184   7.668   7.896  0.2383 -0.3917 -0.0289
 5511SOL     H242733   5.194   7.723   7.755 -0.7872 -2.0723 -0.7599
 5512SOL    OH242734   1.486   4.374   0.329  0.2352 -0.1766 -0.5310
 5512SOL     H142735   1.498   4.295   0.383  1.6102 -0.1132 -0.7280
 5512SOL     H242736   1.424   4.347   0.261  0.7548 -1.1277 -0.6397
 5513SOL    OH242737   0.565   2.728   7.227  0.5068  0.0585 -0.3177
 5513SOL     H142738   0.518   2.812   7.226 -0.2653 -0.3552 -1.9312
 5513SOL     H242739   0.574   2.706   7.319 -0.0869  1.4831  0.0957
 5514SOL    OH242740   3.394   6.164   1.546  0.4856 -0.2150  0.6227
 5514SOL     H142741   3.381   6.144   1.639  0.4205  1.4330  0.9708
 5514SOL     H242742   3.429   6.083   1.509  0.4849 -0.8901  2.0756
 5515SOL    OH242743   1.419   4.684   8.230 -0.1128  0.4139 -0.4043
 5515SOL     H142744   1.333   4.649   8.205 -0.3587  0.2792  0.6111
 5515SOL     H242745   1.424   4.768   8.185 -0.7654  0.4067 -0.4987
 5516SOL    OH242746   2.642   7.071   0.833 -0.5272  0.4172 -0.4777
 5516SOL     H142747   2.653   6.999   0.895  1.7759  1.0937 -0.0678
 5516SOL     H242748   2.599   7.140   0.884  0.8042  0.7461  0.2178
 5517SOL    OH242749   5.350   5.179   0.161 -0.0449 -0.0104 -0.2783
 5517SOL     H142750   5.257   5.168   0.184 -0.2973 -0.6620 -1.5539
 5517SOL     H242751   5.396   5.114   0.213 -0.2013  0.8478  0.9603
 5518SOL    OH242752   6.777   1.632   0.242 -0.2237  0.6889  0.2532
 5518SOL     H142753   6.770   1.543   0.209  1.4629  0.4954  0.3561
 5518SOL     H242754   6.830   1.623   0.322  3.2561  2.2127 -1.7621
 5519SOL    OH242755   5.579   3.971   7.313 -0.2519 -0.1767 -0.1965
 5519SOL     H142756   5.483   3.969   7.317 -0.3050  3.3462  1.8027
 5519SOL     H242757   5.607   3.978   7.404  1.9114 -0.5945 -0.7990
 5520SOL    OH242758   5.974   3.810   6.491 -0.3167  0.4408 -0.2345
 5520SOL     H142759   5.913   3.741   6.467 -0.7530  0.7366  0.0278
 5520SOL     H242760   6.003   3.846   6.407 -0.4248  0.2309 -0.3627
 5521SOL    OH242761   6.763   3.600   2.533  0.2443 -0.5226 -0.2518
 5521SOL     H142762   6.692   3.658   2.505 -2.0511 -3.2875 -0.3966
 5521SOL     H242763   6.793   3.638   2.615 -3.3138 -0.8017  1.2686
 5522SOL    OH242764   0.545   6.734   7.361 -0.3669  0.0965 -0.0917
 5522SOL     H142765   0.565   6.659   7.305 -1.7546  0.0442 -0.5403
 5522SOL     H242766   0.629   6.758   7.401  0.3825 -0.6982 -1.1703
 5523SOL    OH242767   5.293   4.449   0.514  0.1508  0.4311 -0.3766
 5523SOL     H142768   5.236   4.421   0.585 -0.0393  0.1656 -0.6284
 5523SOL     H242769   5.241   4.513   0.465  0.4514  0.9508 -0.0087
 5524SOL    OH242770   6.887   5.105   1.042  0.1369 -0.1606 -0.4326
 5524SOL     H142771   6.872   5.162   0.967  1.1437 -0.7640 -1.0945
 5524SOL     H242772   6.935   5.030   1.007  0.4215 -0.5569  0.7699
 5525SOL    OH242773   6.055   1.628   8.184 -0.8085  0.6843  0.4083
 5525SOL     H142774   6.116   1.622   8.111 -1.5159 -1.4956 -0.0275
 5525SOL     H242775   6.111   1.643   8.261  0.3055 -1.5598  0.0560
 5526SOL    OH242776   0.364   1.142   8.064 -0.4328  0.7929  0.0976
 5526SOL     H142777   0.460   1.145   8.063 -0.4261  0.4208 -1.0215
 5526SOL     H242778   0.339   1.145   7.971 -1.4564 -0.5455  0.3093
 5527SOL    OH242779   7.839   3.320   2.328 -0.2707 -0.7515  0.1826
 5527SOL     H142780   7.933   3.315   2.341 -0.3280  0.1867  1.0516
 5527SOL     H242781   7.826   3.401   2.279 -0.6216 -0.9024  0.0251
 5528SOL    OH242782   3.683   1.249   6.692 -0.5679  0.1498  0.0229
 5528SOL     H142783   3.619   1.264   6.623 -0.2788  0.2547 -0.2204
 5528SOL     H242784   3.630   1.244   6.772 -0.9241 -0.1988 -0.2274
 5529SOL    OH242785   0.911   5.964   7.786 -0.4004 -0.4409 -0.1699
 5529SOL     H142786   0.989   5.994   7.740 -1.0199 -0.5378 -1.3035
 5529SOL     H242787   0.880   6.041   7.834  0.6362 -0.5244  0.6568
 5530SOL    OH242788   2.902   4.798   7.970  0.2469 -0.5407  0.0727
 5530SOL     H142789   2.904   4.836   8.058 -0.8921 -0.5226  0.0925
 5530SOL     H242790   2.818   4.826   7.933  0.9570 -0.0976 -1.2231
 5531SOL    OH242791   0.685   7.698   2.357 -0.5624 -0.3685  0.6026
 5531SOL     H142792   0.589   7.694   2.351 -0.5169 -1.2770  0.3645
 5531SOL     H242793   0.712   7.739   2.275 -0.7139 -0.7403  0.3618
 5532SOL    OH242794   5.498   5.978   7.079  0.0728 -0.4930  0.3833
 5532SOL     H142795   5.425   6.039   7.088 -0.9464 -1.3838 -1.5520
 5532SOL     H242796   5.459   5.892   7.092  1.1977 -0.8464  1.4648
 5533SOL    OH242797   3.756   3.438   6.743  0.0918 -0.0225 -0.1229
 5533SOL     H142798   3.755   3.408   6.652 -1.0995 -0.5145  0.0401
 5533SOL     H242799   3.666   3.427   6.772 -0.0291  2.2481  0.4406
 5534SOL    OH242800   7.802   4.518   1.481 -0.2932  0.0320  0.7714
 5534SOL     H142801   7.883   4.466   1.480  0.5641  1.3040  1.5187
 5534SOL     H242802   7.773   4.519   1.390  0.0858 -1.1124  0.6279
 5535SOL    OH242803   1.086   3.884   0.941 -0.4524 -0.0256  0.3116
 5535SOL     H142804   1.176   3.853   0.941 -0.9225 -1.4103  0.2371
 5535SOL     H242805   1.058   3.875   1.032 -0.0806  1.7534  0.6330
 5536SOL    OH242806   7.768   0.235   1.331 -0.5351 -0.6086 -0.1544
 5536SOL     H142807   7.675   0.238   1.350 -0.4998 -0.4101 -0.0085
 5536SOL     H242808   7.774   0.239   1.236 -0.6486  0.0618 -0.1327
 5537SOL    OH242809   0.121   6.200   6.403 -0.9483  0.2995  0.0960
 5537SOL     H142810   0.026   6.208   6.403 -0.9566  0.2364 -1.0034
 5537SOL     H242811   0.152   6.287   6.379 -0.7756 -0.1179 -1.2359
 5538SOL    OH242812   7.711   0.703   2.073 -0.2655  0.0910  0.1296
 5538SOL     H142813   7.715   0.654   1.991 -0.0309  1.4934 -0.7101
 5538SOL     H242814   7.618   0.722   2.085  0.0385  2.9227 -1.6632
 5539SOL    OH242815   0.455   7.087   0.333 -0.1437 -0.0672 -0.3778
 5539SOL     H142816   0.502   7.097   0.250 -1.3919  1.2984 -0.9210
 5539SOL     H242817   0.441   7.176   0.365 -1.0981 -0.5161  0.5057
 5540SOL    OH242818   7.747   7.635   7.033 -0.3137 -0.5477  0.4700
 5540SOL     H142819   7.768   7.598   7.118 -1.1902 -1.8729  0.1146
 5540SOL     H242820   7.789   7.721   7.034 -0.0760 -0.6643  2.1216
 5541SOL    OH242821   6.596   4.163   2.257  0.3864  0.0439 -0.0670
 5541SOL     H142822   6.597   4.153   2.353  1.2652  1.5186  0.0848
 5541SOL     H242823   6.680   4.127   2.229  0.8739  1.2240 -0.1167
 5542SOL    OH242824   7.676   5.209   1.256  0.3464 -0.3010 -0.1465
 5542SOL     H142825   7.727   5.133   1.230  0.6946  0.7743 -2.7230
 5542SOL     H242826   7.597   5.172   1.295  0.9011 -1.9751 -0.5568
 5543SOL    OH242827   4.954   5.496   0.363 -0.0049 -0.7682  0.7288
 5543SOL     H142828   4.974   5.455   0.448 -0.1251 -1.9190  0.2097
 5543SOL     H242829   4.871   5.455   0.336  0.7776 -1.4748 -0.6348
 5544SOL    OH242830   1.702   0.503   5.877 -0.9522 -0.6439  0.4735
 5544SOL     H142831   1.611   0.474   5.863 -0.8712 -1.9639  2.4573
 5544SOL     H242832   1.753   0.422   5.874  0.2051  0.1164 -0.7710
 5545SOL    OH242833   2.348   4.447   0.048  0.2318 -0.0606 -0.1012
 5545SOL     H142834   2.291   4.454   0.125 -0.0015  0.0798 -0.2894
 5545SOL     H242835   2.436   4.446   0.085  0.1210  0.0124  0.1706
 5546SOL    OH242836   4.165   0.700   0.713 -0.2062  0.4393  0.1252
 5546SOL     H142837   4.244   0.712   0.661  0.8564 -2.6143  0.9371
 5546SOL     H242838   4.180   0.752   0.792 -0.5072  2.6000 -1.2187
 5547SOL    OH242839   4.512   2.457   2.529 -0.2234  0.8885 -0.3086
 5547SOL     H142840   4.434   2.404   2.512  0.8140 -0.1908 -1.8349
 5547SOL     H242841   4.527   2.448   2.623 -0.6568 -0.6856 -0.3768
 5548SOL    OH242842   3.464   3.539   0.554  0.6923  0.0675 -0.3344
 5548SOL     H142843   3.378   3.545   0.513 -0.2070  0.3299  1.5049
 5548SOL     H242844   3.526   3.544   0.482 -0.8333 -0.0005 -1.6792
 5549SOL    OH242845   2.742   6.286   0.220  0.4000 -0.0417 -0.0135
 5549SOL     H142846   2.755   6.343   0.144  0.4754  0.4460  0.3632
 5549SOL     H242847   2.792   6.207   0.200 -0.2328 -0.2510 -0.8319
 5550SOL    OH242848   4.886   1.910   1.686 -0.4895 -0.0858 -0.0123
 5550SOL     H142849   4.837   1.992   1.696 -2.1981 -0.8933 -1.4469
 5550SOL     H242850   4.824   1.842   1.714  0.7950 -0.9285  0.8301
 5551SOL    OH242851   0.578   6.599  -0.019  0.6676 -0.1007 -0.0084
 5551SOL     H142852   0.550   6.617   0.071 -0.6851 -0.4772 -0.3393
 5551SOL     H242853   0.649   6.535  -0.010  1.1041  0.5029  0.8331
 5552SOL    OH242854   5.493   4.747   1.539 -0.1719  0.0549 -0.0404
 5552SOL     H142855   5.575   4.699   1.526 -1.7776 -1.9894 -3.2133
 5552SOL     H242856   5.442   4.692   1.598 -0.1259  0.2270  0.1589
 5553SOL    OH242857   5.678   0.286   0.318  0.2553 -0.2278  0.0506
 5553SOL     H142858   5.690   0.375   0.285  1.6826 -0.5901 -0.4263
 5553SOL     H242859   5.689   0.293   0.413  0.7822  0.0353 -0.0295
 5554SOL    OH242860   3.934   0.687   5.562 -0.0963  0.3495 -0.3870
 5554SOL     H142861   3.955   0.646   5.646 -1.3109  1.5825  0.5434
 5554SOL     H242862   3.880   0.623   5.517  1.0936 -0.5847 -0.4948
 5555SOL    OH242863   2.725   4.086   0.556 -0.0586  0.0402 -0.4434
 5555SOL     H142864   2.693   3.998   0.577  1.1371  0.4854  3.7716
 5555SOL     H242865   2.668   4.116   0.485 -1.2674 -3.6329 -1.1414
 5556SOL    OH242866   1.359   6.129   1.164 -0.6040 -0.3106 -0.0475
 5556SOL     H142867   1.418   6.055   1.153  0.9521  1.0814 -1.5465
 5556SOL     H242868   1.276   6.099   1.128 -0.1427 -1.4908 -0.1622
 5557SOL    OH242869   4.118   6.695   0.189 -0.3622 -0.0912  0.3738
 5557SOL     H142870   4.137   6.718   0.098 -1.7275  3.2550  0.8373
 5557SOL     H242871   4.203   6.693   0.232  0.1248  0.4889 -0.5441
 5558SOL    OH242872   0.240   3.217   6.763 -0.6805  0.6234 -0.1463
 5558SOL     H142873   0.286   3.209   6.847  0.1278 -1.1742 -0.7450
 5558SOL     H242874   0.159   3.262   6.785  0.7272  2.6413  1.1487
 5559SOL    OH242875   5.717   0.115   0.896  0.7693  0.2206 -0.4619
 5559SOL     H142876   5.805   0.146   0.877  0.4600  1.8960  0.7505
 5559SOL     H242877   5.728   0.021   0.913  2.2643  0.3508 -0.6794
 5560SOL    OH242878   4.236   7.098   6.994  0.0553  0.1283  0.2984
 5560SOL     H142879   4.271   7.011   7.015  0.3403 -0.1013 -1.0581
 5560SOL     H242880   4.150   7.099   7.035 -0.1048 -0.9421  0.0274
 5561SOL    OH242881   7.468   0.084   7.063  0.1210 -0.2761 -0.9482
 5561SOL     H142882   7.433   0.060   7.149  1.3495 -2.0156 -0.9005
 5561SOL     H242883   7.543   0.140   7.082 -0.2951  0.2769 -0.9282
 5562SOL    OH242884   2.617   2.765   7.028  0.7290  0.0591 -0.0087
 5562SOL     H142885   2.599   2.853   7.060  0.3153 -0.0489  0.0547
 5562SOL     H242886   2.706   2.747   7.059  0.8628  0.4985 -0.1282
 5563SOL    OH242887   7.303   3.540   0.888  0.2426 -0.0886  0.1651
 5563SOL     H142888   7.396   3.558   0.905 -0.8232  1.9716  4.4589
 5563SOL     H242889   7.296   3.445   0.894  1.7219 -0.1154  1.9718
 5564SOL    OH242890   7.130   7.092   1.426 -0.8579 -0.0679 -0.4070
 5564SOL     H142891   7.190   7.127   1.492 -1.5841  1.5316 -0.5737
 5564SOL     H242892   7.185   7.076   1.349 -0.7152  1.9522 -0.7599
 5565SOL    OH242893   0.593   1.442   6.288  0.1076 -0.2563 -0.1901
 5565SOL     H142894   0.660   1.433   6.220  1.0574 -1.3962  0.8455
 5565SOL     H242895   0.530   1.504   6.253  1.5553  0.5935 -1.3315
 5566SOL    OH242896   3.115   3.878   1.989 -0.3522 -0.5209  0.5345
 5566SOL     H142897   3.178   3.942   2.021 -0.4936 -0.4770  0.7259
 5566SOL     H242898   3.076   3.842   2.068 -1.9454  0.8142  0.3849
 5567SOL    OH242899   6.672   6.289   1.081  0.1430  0.1385  0.5028
 5567SOL     H142900   6.716   6.232   1.017  1.1393  0.6269  0.7477
 5567SOL     H242901   6.626   6.228   1.139 -1.7728 -0.2642 -1.3840
 5568SOL    OH242902   6.415   3.728   6.374  0.3783 -0.3701 -0.6083
 5568SOL     H142903   6.379   3.756   6.458  0.3704  0.0630 -0.7560
 5568SOL     H242904   6.473   3.799   6.348  1.3217 -1.0555 -0.3844
 5569SOL    OH242905   4.290   2.259   0.795 -0.0868  0.0829  0.1902
 5569SOL     H142906   4.337   2.230   0.717 -0.0392 -0.3558  0.3834
 5569SOL     H242907   4.198   2.245   0.774  0.0187 -1.9331  0.9758
 5570SOL    OH242908   2.471   6.041   1.624  0.1346  0.3720  0.6405
 5570SOL     H142909   2.451   6.031   1.717 -0.3709  0.4254  0.5389
 5570SOL     H242910   2.515   5.959   1.600 -0.0345  0.2181  0.8497
 5571SOL    OH242911   6.142   4.524   2.833  0.6139  0.8056  0.0090
 5571SOL     H142912   6.071   4.500   2.894  1.0906  1.1132  0.6910
 5571SOL     H242913   6.217   4.540   2.890  1.3785 -0.0459 -0.7530
 5572SOL    OH242914   4.971   7.693   0.442 -0.1886  0.5762  0.1987
 5572SOL     H142915   4.963   7.599   0.459  0.7001  0.3309 -0.6678
 5572SOL     H242916   4.973   7.733   0.529 -1.5210 -0.1142  0.5532
 5573SOL    OH242917   5.293   1.377   1.491  0.0808  0.4848  0.0589
 5573SOL     H142918   5.218   1.335   1.449 -1.0577 -0.4876  2.8993
 5573SOL     H242919   5.350   1.304   1.517  1.3615  1.1357 -0.8705
 5574SOL    OH242920   2.918   2.486   8.258  0.5862  0.2538  0.0723
 5574SOL     H142921   2.900   2.395   8.234 -0.8981  0.4456  0.3791
 5574SOL     H242922   2.914   2.533   8.174  1.6619  0.0013 -0.1279
 5575SOL    OH242923   2.098   5.989   0.787  0.0062 -0.1630  0.4470
 5575SOL     H142924   2.032   6.035   0.838 -1.9688  0.8149 -2.8725
 5575SOL     H242925   2.157   6.058   0.758 -0.6621 -0.2812 -1.1950
 5576SOL    OH242926   3.506   4.942   6.342  0.4612  0.2255  0.2082
 5576SOL     H142927   3.560   4.957   6.420  0.9466 -2.8806  0.5353
 5576SOL     H242928   3.469   5.028   6.322 -0.9086  0.8201  4.7582
 5577SOL    OH242929   6.666   5.503   1.348  0.1635  0.1748  0.6114
 5577SOL     H142930   6.704   5.441   1.410  1.7130  0.6543  0.1426
 5577SOL     H242931   6.669   5.458   1.263 -1.7494 -0.3932  0.8206
 5578SOL    OH242932   7.083   0.025   7.072 -0.0144 -0.7141 -0.4956
 5578SOL     H142933   7.039   0.104   7.041 -0.6542 -0.4940  0.9391
 5578SOL     H242934   7.176   0.045   7.063 -0.1662 -1.1722 -3.4921
 5579SOL    OH242935   4.822   2.268   7.143  0.7307  0.0888 -0.3426
 5579SOL     H142936   4.794   2.347   7.189  0.0928 -0.5668  0.4133
 5579SOL     H242937   4.855   2.210   7.212 -0.6644 -1.0785 -0.6329
 5580SOL    OH242938   4.264   4.256   7.631 -0.2987 -0.3768  0.0134
 5580SOL     H142939   4.250   4.299   7.714 -0.0905  0.1302 -0.2144
 5580SOL     H242940   4.348   4.289   7.600 -0.6837 -0.0664 -0.7093
 5581SOL    OH242941   0.784   4.720   1.952 -0.4511  0.4886  0.5754
 5581SOL     H142942   0.707   4.672   1.922  1.2177 -2.2334  0.5304
 5581SOL     H242943   0.768   4.733   2.045 -0.6069 -0.7954  0.7415
 5582SOL    OH242944   0.853   5.574   7.323 -0.3960  0.0004  0.1972
 5582SOL     H142945   0.920   5.563   7.256 -0.2904 -0.3619  0.3618
 5582SOL     H242946   0.770   5.561   7.277 -0.2952 -0.9947  0.2863
 5583SOL    OH242947   3.017   5.526   0.600  0.2425  0.5570 -0.0721
 5583SOL     H142948   2.930   5.489   0.607 -0.0118  1.1849  0.1701
 5583SOL     H242949   3.042   5.512   0.508  0.5407 -1.0265  0.2395
 5584SOL    OH242950   7.156   6.082   0.426 -0.3155 -0.2942 -1.1902
 5584SOL     H142951   7.109   6.078   0.342 -1.2441  0.2317 -0.7002
 5584SOL     H242952   7.178   5.991   0.445 -0.3841 -0.4530 -1.8515
 5585SOL    OH242953   2.323   7.011   1.896 -0.5692  0.4707 -0.1323
 5585SOL     H142954   2.386   7.029   1.966  0.4695 -0.4514 -0.8027
 5585SOL     H242955   2.239   7.008   1.940  0.0664 -0.0478  1.0858
 5586SOL    OH242956   6.463   3.556   1.860 -0.0428 -0.0928  0.6037
 5586SOL     H142957   6.431   3.470   1.886  0.6660 -0.5345  0.0252
 5586SOL     H242958   6.551   3.540   1.827  0.6513  1.0528  1.8388
 5587SOL    OH242959   6.807   2.293   0.867 -0.2985  0.3653 -0.3516
 5587SOL     H142960   6.825   2.228   0.935 -1.7591 -0.4526 -0.7145
 5587SOL     H242961   6.893   2.318   0.833  0.2315 -2.4323 -1.1703
 5588SOL    OH242962   7.599   1.427   7.641  0.7317 -0.1022  0.3839
 5588SOL     H142963   7.512   1.395   7.615  0.9759  0.0993 -0.7140
 5588SOL     H242964   7.656   1.351   7.633  0.8133 -0.0314  0.2888
 5589SOL    OH242965   6.671   6.379   1.813 -0.1255 -0.6678 -0.0663
 5589SOL     H142966   6.656   6.379   1.719 -0.3317  1.1422 -0.0578
 5589SOL     H242967   6.757   6.421   1.824  0.8743 -2.7541  0.4420
 5590SOL    OH242968   2.150   1.790   7.366  0.2917 -0.5734 -0.1928
 5590SOL     H142969   2.094   1.824   7.436  1.1884 -0.6242  0.5539
 5590SOL     H242970   2.112   1.825   7.286 -0.3061  0.0863  0.3734
 5591SOL    OH242971   5.515   3.365   7.722  0.1204  0.1646 -0.4027
 5591SOL     H142972   5.536   3.383   7.630 -1.9114  1.4498 -0.6465
 5591SOL     H242973   5.481   3.447   7.756 -0.4145 -0.6615  1.1233
 5592SOL    OH242974   3.113   1.449   7.731  0.2814 -0.3043 -0.0785
 5592SOL     H142975   3.202   1.434   7.699 -0.3056  1.4936 -2.7609
 5592SOL     H242976   3.065   1.371   7.706 -0.3947  1.4454 -4.7732
 5593SOL    OH242977   6.820   5.983   1.630  0.0067  0.1810  0.1858
 5593SOL     H142978   6.737   5.936   1.630  0.3391 -0.4068 -0.9131
 5593SOL     H242979   6.813   6.045   1.557  1.7485 -2.0557 -1.9599
 5594SOL    OH242980   3.252   7.148   1.341  0.6306 -0.2366 -0.4932
 5594SOL     H142981   3.307   7.225   1.331 -1.5059  1.4954  0.6907
 5594SOL     H242982   3.304   7.076   1.305  3.1185  1.5427 -0.5473
 5595SOL    OH242983   4.758   0.301   7.523  0.1631  0.1986  0.1412
 5595SOL     H142984   4.826   0.266   7.580 -0.0468 -1.8154 -0.8166
 5595SOL     H242985   4.720   0.374   7.573  1.0202 -0.5407  1.8983
 5596SOL    OH242986   2.421   4.424   5.786 -0.0546  0.3897  0.8811
 5596SOL     H142987   2.478   4.348   5.782 -0.0765  0.4137  0.1075
 5596SOL     H242988   2.467   4.486   5.844 -0.3845 -0.4895  2.1085
 5597SOL    OH242989   5.428   0.729   1.582 -0.2364  0.0993 -0.2950
 5597SOL     H142990   5.457   0.737   1.492 -0.1690  0.7119 -0.2260
 5597SOL     H242991   5.505   0.699   1.630 -0.3549 -0.5202 -0.4879
 5598SOL    OH242992   6.620   3.535   0.460 -0.0698  0.0037 -0.0520
 5598SOL     H142993   6.602   3.549   0.367  1.5374 -0.5134 -0.4481
 5598SOL     H242994   6.565   3.600   0.505 -1.4327 -0.2629 -1.3132
 5599SOL    OH242995   2.962   3.741   0.349  0.2542 -0.3009 -0.5957
 5599SOL     H142996   2.929   3.791   0.274  0.2471  0.3914 -0.1424
 5599SOL     H242997   2.917   3.657   0.344 -0.3575  0.0403 -0.8997
 5600SOL    OH242998   3.538   2.249   6.026  0.2784  0.3709 -0.4175
 5600SOL     H142999   3.624   2.262   5.987  0.8796  1.2367  1.1697
 5600SOL     H243000   3.532   2.315   6.095 -0.1945 -1.9637  1.8710
 5601SOL    OH243001   6.558   0.545   1.902 -0.0561 -0.3922 -0.1334
 5601SOL     H143002   6.546   0.451   1.893 -2.1264 -0.5525  3.4175
 5601SOL     H243003   6.476   0.583   1.868 -0.3643 -0.0381  0.9963
 5602SOL    OH243004   2.879   4.024   8.249 -0.7582 -0.3380 -0.6875
 5602SOL     H143005   2.786   4.040   8.268 -0.8231  0.7720 -1.9232
 5602SOL     H243006   2.878   3.954   8.183 -0.7623  0.5087 -1.5897
 5603SOL    OH243007   7.463   5.658   0.467  0.0391  0.0152 -0.1308
 5603SOL     H143008   7.465   5.565   0.491  1.0140 -0.0862 -0.6165
 5603SOL     H243009   7.462   5.658   0.371 -0.3354  0.5026 -0.1288
 5604SOL    OH243010   1.630   3.833   7.996 -0.3945 -0.0299 -0.1364
 5604SOL     H143011   1.669   3.892   8.060 -2.6499 -0.0996  1.3815
 5604SOL     H243012   1.613   3.752   8.044 -1.4441 -0.3461 -1.0002
 5605SOL    OH243013   0.596   2.690   0.537  0.6573  0.5545 -0.0307
 5605SOL     H143014   0.602   2.715   0.445 -1.0158 -0.3606 -0.4180
 5605SOL     H243015   0.622   2.598   0.538  1.2679  0.7351  0.5055
 5606SOL    OH243016   0.576   0.279   0.327  0.7769  0.1592 -0.1033
 5606SOL     H143017   0.607   0.188   0.335  0.7872  0.1818  0.1395
 5606SOL     H243018   0.480   0.271   0.332  0.7882  0.1861  0.2155
 5607SOL    OH243019   7.901   6.705   0.191 -0.0037 -0.0654  0.4231
 5607SOL     H143020   7.851   6.787   0.188 -0.3782 -0.2947  0.3317
 5607SOL     H243021   7.986   6.727   0.152 -0.5412 -0.0272 -0.7523
 5608SOL    OH243022   7.002   1.901   7.897  0.0837 -0.3375  0.1082
 5608SOL     H143023   6.927   1.956   7.876  0.7182  1.4562  2.2792
 5608SOL     H243024   7.077   1.961   7.891  1.1822 -1.7457 -0.5713
 5609SOL    OH243025   0.391   7.853   5.832  0.7061  0.2478 -0.0767
 5609SOL     H143026   0.408   7.908   5.909  0.5948  2.4772 -1.6041
 5609SOL     H243027   0.459   7.878   5.770  0.7041 -1.4350 -0.7799
 5610SOL    OH243028   3.015   0.911   2.190 -0.0314 -0.9389  0.4280
 5610SOL     H143029   2.929   0.942   2.163  0.1658  0.6016  1.5151
 5610SOL     H243030   3.033   0.837   2.132 -1.6640 -0.6802 -0.4410
 5611SOL    OH243031   5.222   3.285   6.707 -0.6403  0.0936 -0.5859
 5611SOL     H143032   5.284   3.285   6.634 -0.8527 -0.2044 -0.7649
 5611SOL     H243033   5.137   3.275   6.666 -0.6104 -2.0455 -0.1662
 5612SOL    OH243034   7.529   6.325   1.438  0.2692 -0.2909  0.0605
 5612SOL     H143035   7.461   6.294   1.497 -1.4162  2.7834 -0.1444
 5612SOL     H243036   7.593   6.368   1.495 -0.2816  0.7999 -0.1275
 5613SOL    OH243037   0.113   0.460   0.309 -0.2359  0.1944 -0.0158
 5613SOL     H143038   0.155   0.422   0.232  0.3011  0.5427  0.1042
 5613SOL     H243039   0.168   0.534   0.333 -0.3523  0.0352  0.7548
 5614SOL    OH243040   6.035   1.831   6.939 -0.3070  0.5057 -0.1074
 5614SOL     H143041   6.027   1.921   6.970  1.7327  0.9269 -0.7454
 5614SOL     H243042   6.028   1.838   6.844 -3.8532 -0.4743  0.0145
 5615SOL    OH243043   6.620   3.146   7.847 -0.0079  0.2036  0.0772
 5615SOL     H143044   6.694   3.151   7.908  0.5101 -0.6892 -0.4628
 5615SOL     H243045   6.565   3.076   7.882 -1.6714  2.2084  1.6140
 5616SOL    OH243046   0.763   6.746   1.554 -0.4065  0.4056 -0.2010
 5616SOL     H143047   0.765   6.683   1.482 -0.3120  1.5135 -1.1856
 5616SOL     H243048   0.716   6.822   1.518 -2.6853 -0.0175  1.7254
 5617SOL    OH243049   0.434   0.482   7.881 -0.4369  0.2724 -0.3101
 5617SOL     H143050   0.354   0.498   7.831  0.8668 -0.2810 -2.6416
 5617SOL     H243051   0.501   0.534   7.837  1.3577 -2.4166 -0.8830
 5618SOL    OH243052   5.465   5.461   7.608 -0.2034  0.2601 -0.3065
 5618SOL     H143053   5.483   5.425   7.694 -0.2572  0.2575 -0.2970
 5618SOL     H243054   5.425   5.389   7.559 -0.1295  0.2463 -0.3494
 5619SOL    OH243055   4.315   6.129   8.042 -0.0568  0.1205  0.6958
 5619SOL     H143056   4.223   6.148   8.023 -0.3085  0.3751  2.0976
 5619SOL     H243057   4.341   6.198   8.104  1.1682  0.2418  0.0467
 5620SOL    OH243058   1.622   0.772   1.435  0.0274 -0.3293  0.2522
 5620SOL     H143059   1.576   0.725   1.505 -2.4083  0.7672 -0.5587
 5620SOL     H243060   1.713   0.743   1.443 -0.3638 -0.9181  3.2822
 5621SOL    OH243061   7.985   1.814   6.450 -0.1739 -0.1107 -0.3650
 5621SOL     H143062   7.898   1.805   6.411 -0.4549 -2.7402  0.7763
 5621SOL     H243063   7.969   1.852   6.536  0.0053  1.1444 -0.8712
 5622SOL    OH243064   5.105   6.424   7.005 -0.5319 -0.3155 -0.0027
 5622SOL     H143065   5.137   6.510   6.977 -2.7681 -0.1296 -2.1154
 5622SOL     H243066   5.120   6.423   7.100 -0.7035  2.5018  0.1017
 5623SOL    OH243067   0.898   6.722   1.782  0.3250  0.3202  0.8781
 5623SOL     H143068   0.814   6.719   1.827  0.6621  1.7488  1.6317
 5623SOL     H243069   0.875   6.734   1.690 -0.3248 -1.0480  0.8403
 5624SOL    OH243070   2.047   4.066   0.634 -0.3541  0.1881 -0.1172
 5624SOL     H143071   2.122   4.059   0.575 -1.0256 -0.1508 -0.9448
 5624SOL     H243072   2.083   4.051   0.721  0.7460  1.2441 -0.3756
 5625SOL    OH243073   7.654   1.778   2.181 -0.0873 -0.2827 -0.3076
 5625SOL     H143074   7.628   1.707   2.239  1.3987 -0.1339  0.5576
 5625SOL     H243075   7.572   1.822   2.158 -0.8794 -1.5225  0.1351
 5626SOL    OH243076   2.776   4.978   2.130  0.1442 -0.3647  0.3308
 5626SOL     H143077   2.850   4.947   2.183  0.3485  1.1152  0.9437
 5626SOL     H243078   2.808   5.058   2.088  0.2571 -1.9456 -2.7178
 5627SOL    OH243079   0.515   2.617   0.991  0.0718  0.0980  0.0873
 5627SOL     H143080   0.506   2.568   0.909  0.1746 -0.0995  0.1960
 5627SOL     H243081   0.538   2.706   0.963  2.2333 -0.4617 -0.0249
 5628SOL    OH243082   7.150   0.295   7.212 -0.7502  0.4471  0.0488
 5628SOL     H143083   7.162   0.340   7.296 -2.2156 -1.7928  1.5082
 5628SOL     H243084   7.056   0.279   7.208 -0.5786 -0.1259 -1.6987
 5629SOL    OH243085   2.479   7.138   6.650  0.1341 -0.7482  0.5711
 5629SOL     H143086   2.428   7.216   6.628 -0.2535 -1.1546 -0.0158
 5629SOL     H243087   2.435   7.067   6.602  1.3804 -1.0676 -0.1314
 5630SOL    OH243088   3.957   3.110   0.598  0.1375  0.3663  0.4973
 5630SOL     H143089   3.867   3.102   0.568 -0.3185  2.2540  1.2807
 5630SOL     H243090   3.950   3.125   0.692  1.4739 -3.5628  1.2839
 5631SOL    OH243091   3.607   4.602   7.364  0.7699  0.5330  0.6871
 5631SOL     H143092   3.577   4.687   7.397 -0.8028 -0.1157  0.9758
 5631SOL     H243093   3.695   4.592   7.400  1.1302  2.2292  0.3125
 5632SOL    OH243094   4.537   6.129   2.287  0.1126  0.2594 -0.2524
 5632SOL     H143095   4.631   6.112   2.288  0.2475  0.9985 -0.1735
 5632SOL     H243096   4.507   6.102   2.373  0.9459  3.8304  1.2331
 5633SOL    OH243097   2.593   4.150   1.276  0.5188 -0.3051  0.2725
 5633SOL     H143098   2.618   4.098   1.352 -2.2082  1.4758  2.5374
 5633SOL     H243099   2.512   4.108   1.244  0.1507  0.5668  0.0490
 5634SOL    OH243100   2.720   1.204   6.833 -0.8033 -0.4317  0.2319
 5634SOL     H143101   2.773   1.267   6.882 -0.7948 -1.1546  1.1720
 5634SOL     H243102   2.672   1.156   6.901 -2.0069 -0.3675 -0.5572
 5635SOL    OH243103   2.440   1.909   7.453  0.4005  0.2217  0.3661
 5635SOL     H143104   2.354   1.946   7.473  0.1435  0.0112 -0.3090
 5635SOL     H243105   2.468   1.955   7.374 -0.2560 -1.5012 -0.9225
 5636SOL    OH243106   6.948   5.096   6.904 -0.1032 -0.4951 -0.2542
 5636SOL     H143107   7.015   5.037   6.940  0.4072  0.7102  0.8000
 5636SOL     H243108   6.953   5.174   6.958 -0.6209  0.6215 -1.7893
 5637SOL    OH243109   0.117   6.983   6.856 -0.8361  0.1853  0.1462
 5637SOL     H143110   0.184   6.958   6.919 -2.0454 -1.1189  0.9300
 5637SOL     H243111   0.166   7.022   6.783  0.6570  0.4880  1.3029
 5638SOL    OH243112   0.670   1.590   1.010 -0.7803 -0.3423 -0.6405
 5638SOL     H143113   0.685   1.572   0.917  0.0047 -1.1395 -0.3756
 5638SOL     H243114   0.652   1.503   1.048 -1.1444 -0.0161 -0.0652
 5639SOL    OH243115   2.617   4.680   2.103 -0.6296  0.2962 -0.1309
 5639SOL     H143116   2.669   4.651   2.029 -2.1947  0.9277 -1.4912
 5639SOL     H243117   2.565   4.603   2.127  0.4188 -0.1363  0.8172
 5640SOL    OH243118   2.266   4.867   6.327 -0.7882 -0.0725 -0.3891
 5640SOL     H143119   2.360   4.865   6.345 -0.7905 -0.3344 -0.4014
 5640SOL     H243120   2.249   4.954   6.292 -0.7429  0.3615  0.6526
 5641SOL    OH243121   4.181   6.290   6.724 -0.8710  0.4580  0.3894
 5641SOL     H143122   4.163   6.208   6.770  0.2769  0.4240  0.8174
 5641SOL     H243123   4.147   6.358   6.783 -0.4767  0.3538  0.7469
 5642SOL    OH243124   1.670   4.461   6.588  0.6517  0.4701  0.0986
 5642SOL     H143125   1.654   4.548   6.553  0.9474  1.1844  1.7418
 5642SOL     H243126   1.750   4.432   6.544  0.0588  0.6305 -1.1256
 5643SOL    OH243127   0.008   7.388   7.765 -0.1961  0.1963  0.1781
 5643SOL     H143128   0.095   7.411   7.798  0.7662 -0.8550 -1.6017
 5643SOL     H243129  -0.052   7.424   7.831  1.5815  0.5910  1.6273
 5644SOL    OH243130   0.829   6.364   0.481  0.4217  0.1370  0.0291
 5644SOL     H143131   0.902   6.328   0.530  0.2123  1.0456  1.0234
 5644SOL     H243132   0.858   6.452   0.456  0.8597 -0.5874 -2.2186
 5645SOL    OH243133   2.170   0.346   6.620  0.4547  0.2478  0.1330
 5645SOL     H143134   2.127   0.431   6.617 -0.3833 -0.1336  0.9958
 5645SOL     H243135   2.109   0.287   6.576  0.4930 -0.1226  0.5693
 5646SOL    OH243136   1.806   0.998   7.036 -0.6236 -0.0222  0.2281
 5646SOL     H143137   1.727   0.979   6.985  0.3308 -1.8432 -0.6237
 5646SOL     H243138   1.827   1.090   7.016 -1.1698 -0.2438 -1.4195
 5647SOL    OH243139   2.270   5.502   0.651  0.2840  0.2369 -0.0173
 5647SOL     H143140   2.356   5.535   0.676  0.4597 -0.7800  0.7705
 5647SOL     H243141   2.285   5.408   0.635 -0.7156  0.0132  0.3320
 5648SOL    OH243142   7.726   7.873   6.781 -0.7959 -0.4042  0.5966
 5648SOL     H143143   7.730   7.914   6.868 -2.0115  0.8357  0.1006
 5648SOL     H243144   7.632   7.866   6.763 -0.5377  0.4503 -1.1113
 5649SOL    OH243145   6.184   5.824   6.577  0.0665 -0.4939 -0.3918
 5649SOL     H143146   6.217   5.741   6.543  2.6313  0.1993  0.3392
 5649SOL     H243147   6.203   5.821   6.671 -0.9981  0.3957 -0.1317
 5650SOL    OH243148   4.961   3.219   1.544 -0.5449  0.3188 -0.1745
 5650SOL     H143149   4.878   3.195   1.504 -0.2611  0.4767 -0.8540
 5650SOL     H243150   4.992   3.138   1.586 -1.0383  0.2632  0.0849
 5651SOL    OH243151   0.314   6.092   2.203 -0.8015  0.1004  0.5273
 5651SOL     H143152   0.291   6.018   2.259  0.8918 -2.6067 -2.2163
 5651SOL     H243153   0.263   6.078   2.123  0.0337  1.5269 -0.2658
 5652SOL    OH243154   4.989   6.206   0.353 -0.0993  0.0917  0.3528
 5652SOL     H143155   5.051   6.230   0.421 -0.2025 -4.0729  2.0662
 5652SOL     H243156   4.904   6.203   0.398 -0.3169 -1.7641 -0.1370
 5653SOL    OH243157   1.039   5.758   1.831  0.7984  0.0526 -0.8588
 5653SOL     H143158   0.951   5.795   1.825  0.7133  0.2429  1.2023
 5653SOL     H243159   1.025   5.663   1.829  0.7283  0.0855 -2.5622
 5654SOL    OH243160   0.144   0.103   0.487  0.4310  0.1391  0.5868
 5654SOL     H143161   0.200   0.077   0.414 -0.0115 -0.0087  0.2971
 5654SOL     H243162   0.160   0.037   0.554 -1.7838 -1.7581 -0.6930
 5655SOL    OH243163   6.095   3.965   2.745  0.0137  0.1864 -0.1364
 5655SOL     H143164   6.140   4.017   2.678 -0.1604  1.8976  1.0232
 5655SOL     H243165   6.071   4.029   2.812 -1.1017 -1.2621  0.8772
 5656SOL    OH243166   4.008   3.352   7.772 -0.3951  0.1132  0.1963
 5656SOL     H143167   4.008   3.264   7.810 -0.2750 -0.2120 -0.5545
 5656SOL     H243168   3.965   3.342   7.687  0.6800  0.5489 -0.4090
 5657SOL    OH243169   2.585   0.787   1.187 -0.7131 -0.9526 -0.2826
 5657SOL     H143170   2.608   0.868   1.234 -1.5302 -1.4824  1.0441
 5657SOL     H243171   2.584   0.812   1.095 -0.5030  0.4440  0.0882
 5658SOL    OH243172   6.893   7.375   0.322 -0.3566 -0.1238  0.0894
 5658SOL     H143173   6.857   7.375   0.411  0.6638 -0.0817  0.5128
 5658SOL     H243174   6.976   7.424   0.330 -0.7482  0.7585 -1.0859
 5659SOL    OH243175   4.751   5.904   7.219 -0.1738 -0.2288  0.2343
 5659SOL     H143176   4.748   5.822   7.170 -0.6653 -0.2111  0.2383
 5659SOL     H243177   4.820   5.889   7.285  0.2455 -0.3743 -0.2295
 5660SOL    OH243178   0.919   7.748   6.343  0.4774 -0.1127 -0.2330
 5660SOL     H143179   0.824   7.741   6.343  0.4969 -0.5461  1.5479
 5660SOL     H243180   0.948   7.677   6.285 -0.3012  0.4563 -1.3325
 5661SOL    OH243181   1.198   0.621   6.625 -0.3436  0.8706  0.7538
 5661SOL     H143182   1.239   0.590   6.705  0.5082  0.8108  0.3083
 5661SOL     H243183   1.105   0.609   6.639 -0.1430 -0.0329  1.3586
 5662SOL    OH243184   1.377   4.774   7.811 -0.0186  0.4011  0.0007
 5662SOL     H143185   1.293   4.728   7.816  0.6644 -0.7530  1.0543
 5662SOL     H243186   1.432   4.717   7.756  0.3933  0.6528  0.1495
 5663SOL    OH243187   1.174   2.381   1.211 -0.2261  0.2777 -0.1784
 5663SOL     H143188   1.209   2.326   1.141  1.9472  1.4693 -0.0827
 5663SOL     H243189   1.196   2.470   1.184  2.4969  0.6320  2.9799
 5664SOL    OH243190   4.138   6.588   0.595 -0.7150 -0.3479  0.0432
 5664SOL     H143191   4.073   6.654   0.569 -0.6367 -1.2718 -2.5831
 5664SOL     H243192   4.189   6.572   0.516  0.4748 -2.2043  1.1649
 5665SOL    OH243193   1.945   5.639   7.091 -0.1282  0.6069 -0.0330
 5665SOL     H143194   1.900   5.660   7.172  0.7377 -0.7400  0.8159
 5665SOL     H243195   2.023   5.694   7.092 -0.1864  0.6891 -0.0167
 5666SOL    OH243196   0.343   6.031   1.717  0.3368  0.2264  0.2567
 5666SOL     H143197   0.368   6.123   1.711 -0.9020  0.5822  0.2801
 5666SOL     H243198   0.325   6.006   1.626  1.7473 -0.3087  0.1230
 5667SOL    OH243199   2.854   0.631   0.097  0.2932 -0.0318 -0.1463
 5667SOL     H143200   2.808   0.701   0.050  0.5609  0.2530  0.0128
 5667SOL     H243201   2.808   0.623   0.180  0.6483  0.3901  0.0954
 5668SOL    OH243202   7.225   1.821   0.963 -0.4561 -0.0799 -0.5525
 5668SOL     H143203   7.217   1.914   0.941 -0.5775  0.2727  0.9172
 5668SOL     H243204   7.240   1.820   1.057 -0.1215 -1.5443 -0.6088
 5669SOL    OH243205   2.130   2.114   7.371  0.0732  0.3090  0.1641
 5669SOL     H143206   2.052   2.063   7.393 -0.2947  0.5880 -0.4849
 5669SOL     H243207   2.137   2.107   7.275  0.2154  1.1953  0.1092
 5670SOL    OH243208   5.417   3.026   0.726 -0.5971  0.3199  0.6201
 5670SOL     H143209   5.370   3.109   0.737 -0.9112 -0.1295  3.0042
 5670SOL     H243210   5.506   3.044   0.759 -0.1620  0.1658 -0.4492
 5671SOL    OH243211   4.283   6.525   7.860 -0.0933 -0.4615 -0.6184
 5671SOL     H143212   4.259   6.592   7.796 -1.3038  2.7036  2.9242
 5671SOL     H243213   4.205   6.469   7.866 -0.3392 -0.1826 -1.1514
 5672SOL    OH243214   5.017   7.749   6.689  1.4250  0.7387  0.1246
 5672SOL     H143215   4.943   7.739   6.630  2.7495 -0.2261 -1.4237
 5672SOL     H243216   5.028   7.663   6.729  1.8729  0.7989  0.1324
 5673SOL    OH243217   2.077   3.499   0.220 -0.9885  0.7031 -0.0017
 5673SOL     H143218   1.993   3.537   0.245 -1.1986  0.8569 -0.9376
 5673SOL     H243219   2.106   3.551   0.146 -0.7638 -0.2680 -0.6064
 5674SOL    OH243220   1.367   7.105   1.545 -0.2999  0.0956 -0.5520
 5674SOL     H143221   1.433   7.056   1.595 -1.0285  0.2673  0.5950
 5674SOL     H243222   1.419   7.158   1.484  0.5479 -1.0710 -0.8701
 5675SOL    OH243223   4.650   0.438   1.221 -0.5540 -0.7606 -0.0827
 5675SOL     H143224   4.737   0.439   1.260  0.4959 -0.7350 -2.3100
 5675SOL     H243225   4.611   0.356   1.251  0.1521 -0.6630  1.1212
 5676SOL    OH243226   3.183   7.529   1.243 -0.0973 -0.2479 -0.2489
 5676SOL     H143227   3.093   7.557   1.229  1.0221  2.1511 -3.5925
 5676SOL     H243228   3.195   7.455   1.184 -0.3803 -1.7447  1.5543
 5677SOL    OH243229   6.680   0.022   7.102 -0.1384  0.4438  0.5496
 5677SOL     H143230   6.734  -0.043   7.057  0.2408  1.0723  0.0940
 5677SOL     H243231   6.597   0.022   7.053  0.0632  0.7070  0.2082
 5678SOL    OH243232   1.669   0.467   1.180 -0.2134 -0.1480 -0.0363
 5678SOL     H143233   1.578   0.464   1.148 -0.7638  1.9560  1.2355
 5678SOL     H243234   1.708   0.541   1.133  1.1336 -1.5588 -1.2049
 5679SOL    OH243235   4.604   2.897   1.639 -0.3652 -0.7678 -0.1618
 5679SOL     H143236   4.635   2.822   1.690  0.8226  0.6110  1.2057
 5679SOL     H243237   4.582   2.963   1.704 -0.6135  0.3705 -1.3711
 5680SOL    OH243238   3.365   3.909   8.143  0.0573  0.3006 -0.3261
 5680SOL     H143239   3.424   3.883   8.072 -1.1395 -1.5210 -0.6661
 5680SOL     H243240   3.330   3.993   8.114  1.0856  0.5264 -0.9618
 5681SOL    OH243241   4.248   7.065   1.202  0.1300 -0.1742  0.7077
 5681SOL     H143242   4.286   7.131   1.143  0.9588 -0.5538  0.8056
 5681SOL     H243243   4.283   6.982   1.169 -3.0997 -0.8768 -1.1521
 5682SOL    OH243244   5.266   6.963   7.667 -0.1882 -0.6838 -0.2316
 5682SOL     H143245   5.263   6.870   7.643 -0.5523 -0.8572  0.4753
 5682SOL     H243246   5.302   6.964   7.755  1.7716  0.0095 -1.0152
 5683SOL    OH243247   2.899   6.465   2.537 -0.5906  0.1288 -1.1553
 5683SOL     H143248   2.989   6.495   2.552 -0.5472 -0.4728 -0.1168
 5683SOL     H243249   2.845   6.544   2.550 -0.4663 -0.1674  1.3928
 5684SOL    OH243250   5.398   4.804   6.395 -0.4450  0.0347  0.0085
 5684SOL     H143251   5.383   4.735   6.460  0.1912 -0.8144 -0.7390
 5684SOL     H243252   5.397   4.759   6.311  0.7870  0.8200 -0.4365
 5685SOL    OH243253   6.741   2.400   0.248 -0.1661 -0.7849 -0.4830
 5685SOL     H143254   6.807   2.466   0.270 -0.8335 -0.1422 -0.3918
 5685SOL     H243255   6.705   2.373   0.333 -1.3997  0.3018 -0.6519
 5686SOL    OH243256   0.630   4.636   7.197  0.1469 -0.0264  0.5243
 5686SOL     H143257   0.543   4.625   7.236 -0.2763  0.9191 -0.1325
 5686SOL     H243258   0.615   4.627   7.103  0.7763  0.0958  0.4123
 5687SOL    OH243259   6.088   0.054   1.472  0.1359 -0.1827  0.0814
 5687SOL     H143260   6.086   0.036   1.378  1.4630  0.4222 -0.0728
 5687SOL     H243261   6.149   0.126   1.481 -1.5622  1.1462  1.2116
 5688SOL    OH243262   7.754   6.843   7.785  0.1548 -0.1512 -0.0908
 5688SOL     H143263   7.662   6.863   7.767 -0.4097 -2.8731 -0.4459
 5688SOL     H243264   7.788   6.811   7.701  1.5758  1.2809 -0.0812
 5689SOL    OH243265   0.856   0.172   6.711  0.0132 -0.3361  0.2872
 5689SOL     H143266   0.825   0.232   6.643  0.5876  0.7826  1.0067
 5689SOL     H243267   0.864   0.088   6.666 -0.2548  0.2410 -0.8641
 5690SOL    OH243268   5.155   3.724   2.570  0.0712  0.1464 -0.6146
 5690SOL     H143269   5.063   3.747   2.557 -0.5174 -0.8494  1.6349
 5690SOL     H243270   5.199   3.808   2.579 -1.3109  0.5929  2.6275
 5691SOL    OH243271   4.548   4.447   1.634 -0.6087  0.1723 -0.4386
 5691SOL     H143272   4.511   4.533   1.656  1.1345  1.0651 -0.8680
 5691SOL     H243273   4.514   4.429   1.546 -1.2043  0.2873 -0.2378
 5692SOL    OH243274   1.102   0.330   6.736  0.1186 -0.5867 -0.0923
 5692SOL     H143275   1.021   0.290   6.767  0.7338 -0.5229  1.6349
 5692SOL     H243276   1.115   0.293   6.649 -2.4871  0.4300 -0.9720
 5693SOL    OH243277   0.505   5.767   6.167 -0.1924  0.2852  0.1924
 5693SOL     H143278   0.554   5.803   6.241 -3.7799  1.4182  2.1313
 5693SOL     H243279   0.460   5.690   6.202 -1.5567  0.5509 -0.9090
 5694SOL    OH243280   0.119   5.952   6.472 -0.3147 -0.5088  0.3752
 5694SOL     H143281   0.136   5.984   6.561 -0.0464 -0.2926  0.2489
 5694SOL     H243282   0.111   6.032   6.420 -0.2877 -0.6394  0.1720
 5695SOL    OH243283   2.923   2.566   6.637  0.1743 -0.3706 -0.3049
 5695SOL     H143284   2.881   2.573   6.722  0.8377 -0.2969  0.0190
 5695SOL     H243285   3.012   2.537   6.657 -0.4691 -3.1284 -1.1226
 5696SOL    OH243286   4.162   0.070   0.031 -0.2113 -0.8471  0.5081
 5696SOL     H143287   4.213   0.143  -0.002 -0.3263 -0.9993 -0.0063
 5696SOL     H243288   4.080   0.110   0.061 -0.0946 -0.7060  0.6377
 5697SOL    OH243289   5.172   2.851   2.519  0.1037  0.2843 -0.3594
 5697SOL     H143290   5.163   2.779   2.457  0.1544 -0.6311  0.6900
 5697SOL     H243291   5.100   2.838   2.581 -0.8466  2.0239 -1.0331
 5698SOL    OH243292   0.768   3.897   0.147  0.0850 -0.1281  0.3856
 5698SOL     H143293   0.859   3.867   0.154 -0.2316 -1.1003  0.5077
 5698SOL     H243294   0.727   3.865   0.228  0.0137  1.6781  1.0706
 5699SOL    OH243295   4.733   7.112   1.164  0.2312  0.2189  0.4421
 5699SOL     H143296   4.783   7.126   1.084  0.6696 -0.6403  0.5624
 5699SOL     H243297   4.782   7.159   1.231 -0.1882  1.0168  0.1908
 5700SOL    OH243298   3.389   7.044   0.345  0.1470 -0.2593  0.3887
 5700SOL     H143299   3.300   7.022   0.318 -0.4316  2.8164 -0.3507
 5700SOL     H243300   3.381   7.070   0.437  0.6258 -1.8443  0.8945
 5701SOL    OH243301   3.583   2.568   0.039  0.0592  0.7599  0.7423
 5701SOL     H143302   3.618   2.617  -0.036  2.0848 -2.4929 -0.5365
 5701SOL     H243303   3.655   2.565   0.101 -0.0510 -0.5488  0.8107
 5702SOL    OH243304   4.114   1.633   0.903 -0.0745 -0.2759  0.4790
 5702SOL     H143305   4.022   1.644   0.876  0.3943 -1.0174 -1.5434
 5702SOL     H243306   4.128   1.702   0.968 -1.6579  0.7932 -0.2728
 5703SOL    OH243307   4.270   0.030   6.767  0.1038 -0.7361 -0.0991
 5703SOL     H143308   4.364   0.036   6.784 -0.0415  1.4667  0.0693
 5703SOL     H243309   4.264   0.007   6.674  0.8107  0.6606 -0.5040
 5704SOL    OH243310   1.498   1.030   1.476 -0.1728 -0.5025  0.2679
 5704SOL     H143311   1.550   1.110   1.469  0.7253 -1.0770  0.3364
 5704SOL     H243312   1.562   0.960   1.480 -0.9586 -1.2301  0.2404
 5705SOL    OH243313   1.543   6.575   2.586 -0.5670 -0.0259  0.3876
 5705SOL     H143314   1.597   6.495   2.590 -0.6527 -0.1367 -0.5302
 5705SOL     H243315   1.454   6.545   2.602 -0.5714 -0.0933  0.2445
 5706SOL    OH243316   0.515   2.168   1.311  0.8062 -0.3709  0.1539
 5706SOL     H143317   0.421   2.175   1.299  0.8458 -0.9950 -0.5464
 5706SOL     H243318   0.542   2.255   1.343 -0.0589 -0.3320  0.7836
 5707SOL    OH243319   7.169   1.374   6.776 -0.4069  0.1886  0.0071
 5707SOL     H143320   7.130   1.461   6.788 -3.1429 -0.8022 -1.3135
 5707SOL     H243321   7.222   1.383   6.696  0.3753  0.9618  0.5972
 5708SOL    OH243322   3.289   6.752   6.059 -0.0580  0.0987  0.3934
 5708SOL     H143323   3.292   6.706   5.975  2.5802  1.3897 -0.2752
 5708SOL     H243324   3.380   6.773   6.078 -0.6605  0.1188  3.4408
 5709SOL    OH243325   2.353   0.516   7.990  0.4731 -0.1261  0.2410
 5709SOL     H143326   2.264   0.542   7.969  1.0281  1.4753 -0.2501
 5709SOL     H243327   2.375   0.450   7.924 -0.0361  0.1602 -0.2176
 5710SOL    OH243328   0.629   7.234   7.429  0.4136  0.1311 -0.1637
 5710SOL     H143329   0.649   7.140   7.427  0.5077  0.1561 -0.3485
 5710SOL     H243330   0.683   7.272   7.360  1.0563  0.4466  0.4999
 5711SOL    OH243331   4.063   2.011   5.792 -0.1480 -0.1418 -0.1063
 5711SOL     H143332   4.034   2.069   5.862  0.4311 -2.2390  1.9399
 5711SOL     H243333   4.158   2.005   5.803 -0.0335 -0.3326 -1.1733
 5712SOL    OH243334   7.385   3.952   6.020 -0.0327  0.2556 -0.2951
 5712SOL     H143335   7.306   3.915   6.060  0.0090  0.5632  0.0769
 5712SOL     H243336   7.367   4.046   6.013  0.2994  0.3266 -0.2071
 5713SOL    OH243337   3.947   7.952   0.540 -0.4407 -0.0321 -0.3091
 5713SOL     H143338   3.933   8.021   0.476 -0.8004 -0.6594 -0.9235
 5713SOL     H243339   3.992   7.883   0.492 -0.2442 -0.2977  0.2477
 5714SOL    OH243340   2.278   1.570   5.615 -0.0097 -0.3876  1.0302
 5714SOL     H143341   2.243   1.483   5.634 -0.5137 -0.6182 -0.8855
 5714SOL     H243342   2.372   1.556   5.605 -0.0655 -0.6923  0.9242
 5715SOL    OH243343   2.052   6.427   1.324  0.3197 -0.2990  0.2814
 5715SOL     H143344   1.994   6.482   1.376  0.8185  1.6211 -1.1273
 5715SOL     H243345   2.019   6.435   1.235  2.4708  0.4920 -0.4743
 5716SOL    OH243346   6.245   6.463   6.051 -0.1123 -0.1411  0.7505
 5716SOL     H143347   6.337   6.476   6.076  0.1129 -0.7289  0.2263
 5716SOL     H243348   6.248   6.439   5.958 -0.7593 -0.6947  0.8686
 5717SOL    OH243349   7.610   0.462   6.473  0.3048 -0.2314 -0.4242
 5717SOL     H143350   7.536   0.443   6.531  1.4438 -0.2357  1.0716
 5717SOL     H243351   7.684   0.473   6.533  1.3475  0.5624 -1.8431
 5718SOL    OH243352   7.265   0.337   1.347 -0.2903 -0.5218  0.5265
 5718SOL     H143353   7.252   0.247   1.318  0.1497 -0.8562  1.3290
 5718SOL     H243354   7.193   0.354   1.407 -0.6355 -0.1767  0.0177
 5719SOL    OH243355   5.087   4.737   0.718  0.2766  0.1429 -0.2376
 5719SOL     H143356   5.164   4.719   0.771 -1.2991 -0.7974  1.7786
 5719SOL     H243357   5.030   4.790   0.774 -0.8431  0.2493 -1.4404
 5720SOL    OH243358   2.303   4.450   1.425 -0.4018  0.1513 -0.6326
 5720SOL     H143359   2.272   4.538   1.402 -0.8362  0.0965 -0.2704
 5720SOL     H243360   2.229   4.411   1.471 -0.0118 -0.2103 -0.3163
 5721SOL    OH243361   7.490   4.699   2.303  0.7228  0.3046  0.0180
 5721SOL     H143362   7.424   4.666   2.365 -1.0357 -0.7541 -2.3271
 5721SOL     H243363   7.558   4.632   2.302  0.2778 -0.1562  0.1037
 5722SOL    OH243364   6.185   2.200   6.224 -0.2668 -0.0121 -0.3759
 5722SOL     H143365   6.213   2.255   6.151 -0.6602  0.3227 -0.2780
 5722SOL     H243366   6.222   2.243   6.302 -1.5726  0.8008 -0.1801
 5723SOL    OH243367   2.813   3.813   1.307  0.0464  0.4295 -0.6467
 5723SOL     H143368   2.837   3.722   1.286 -0.8478 -0.1206  0.6790
 5723SOL     H243369   2.891   3.864   1.284  1.1928 -0.8858  0.2155
 5724SOL    OH243370   6.000   6.893   6.264  0.1406  0.3633  0.1347
 5724SOL     H143371   5.939   6.880   6.192 -1.3583 -0.8672  1.6010
 5724SOL     H243372   5.992   6.814   6.318  2.7658  0.3449  0.5411
 5725SOL    OH243373   3.063   4.801   0.927 -0.5686 -0.0857 -0.0595
 5725SOL     H143374   3.042   4.709   0.915 -2.5304  0.4036 -0.4853
 5725SOL     H243375   3.016   4.846   0.857  1.5703  1.1148 -0.7880
 5726SOL    OH243376   3.739   4.192   8.059  0.7408  0.2945 -0.3601
 5726SOL     H143377   3.728   4.146   7.975  2.4112  3.0363 -2.1759
 5726SOL     H243378   3.834   4.200   8.070  0.6320 -1.9350  2.9635
 5727SOL    OH243379   1.435   6.131   0.068 -0.3745  1.0704 -0.3999
 5727SOL     H143380   1.433   6.136   0.163 -0.9107  2.9816 -0.4729
 5727SOL     H243381   1.380   6.056   0.046 -0.3087  0.6693  0.7944
 5728SOL    OH243382   7.004   3.777   7.355  0.5875  0.1870 -0.0330
 5728SOL     H143383   6.996   3.841   7.426  0.2540 -0.1775  0.2584
 5728SOL     H243384   7.039   3.699   7.397  0.1858 -0.1000 -0.2340
 5729SOL    OH243385   3.162   7.674   8.067 -0.2229  0.2407  0.0380
 5729SOL     H143386   3.113   7.595   8.092 -0.5646 -0.4199 -2.5810
 5729SOL     H243387   3.123   7.700   7.984  0.3644  2.8064  0.5261
 5730SOL    OH243388   2.395   3.849   7.852  0.3074 -0.3524  0.4697
 5730SOL     H143389   2.434   3.854   7.765 -1.8952  1.2663 -0.4635
 5730SOL     H243390   2.301   3.842   7.836 -0.0643 -0.8479  2.7043
 5731SOL    OH243391   2.357   7.594   8.186 -0.2798  0.4124  0.4260
 5731SOL     H143392   2.375   7.501   8.204  0.1365 -0.1636 -2.6576
 5731SOL     H243393   2.428   7.641   8.230 -0.0646 -0.7606  1.3709
 5732SOL    OH243394   0.459   1.410   7.287  0.1327 -0.6624  0.6681
 5732SOL     H143395   0.440   1.490   7.238  0.1269 -0.9922  0.1307
 5732SOL     H243396   0.551   1.420   7.313  0.0960 -0.4245  0.7109
 5733SOL    OH243397   3.879   1.198   2.311 -0.3605 -0.4340 -0.5205
 5733SOL     H143398   3.879   1.293   2.311  2.2069 -0.3633  2.1909
 5733SOL     H243399   3.828   1.173   2.387 -0.1516 -1.1962 -0.6203
 5734SOL    OH243400   5.626   6.889   8.056 -0.2070 -0.2832 -0.2321
 5734SOL     H143401   5.719   6.897   8.036  0.6297 -0.2826  3.3713
 5734SOL     H243402   5.607   6.796   8.048  0.7029 -0.6158  1.3789
 5735SOL    OH243403   6.276   3.812   6.642 -0.7078  0.4711 -0.5951
 5735SOL     H143404   6.288   3.865   6.721  2.5362 -1.4423  0.2789
 5735SOL     H243405   6.266   3.877   6.571 -1.2835  2.2106  1.0361
 5736SOL    OH243406   1.403   1.975   0.312 -0.1433 -0.5871  0.2833
 5736SOL     H143407   1.437   2.055   0.351  1.5712 -0.8522 -0.6325
 5736SOL     H243408   1.477   1.938   0.264 -0.8399 -2.8489  0.9070
 5737SOL    OH243409   1.533   6.348   6.338  0.0426 -0.3053  0.5408
 5737SOL     H143410   1.496   6.266   6.306 -0.7636  0.3524 -0.2602
 5737SOL     H243411   1.614   6.323   6.382 -0.4928 -1.5829  0.8053
 5738SOL    OH243412   0.560   5.600   1.947  0.1224  0.0268 -0.5549
 5738SOL     H143413   0.563   5.601   1.851  1.5528 -0.8947 -0.5302
 5738SOL     H243414   0.606   5.519   1.971  0.7401  0.8133  0.9323
 5739SOL    OH243415   4.482   3.844   0.567 -0.4104  0.9393 -0.0585
 5739SOL     H143416   4.488   3.784   0.493  1.2438  1.4602 -0.3741
 5739SOL     H243417   4.425   3.799   0.630 -0.2081 -0.4000 -0.8104
 5740SOL    OH243418   6.645   0.123   7.830  0.0227  0.5257  0.5440
 5740SOL     H143419   6.607   0.174   7.759  0.2490 -0.5558 -0.3794
 5740SOL     H243420   6.574   0.064   7.857  0.2938  0.1338  0.4118
 5741SOL    OH243421   0.333   2.567   8.286 -0.6917  0.2157  0.2962
 5741SOL     H143422   0.250   2.583   8.242  0.5437  1.1830 -1.7497
 5741SOL     H243423   0.354   2.475   8.266 -0.4497  0.4673 -0.6298
 5742SOL    OH243424   2.755   6.402   6.355  0.0148 -0.3724 -0.1110
 5742SOL     H143425   2.680   6.357   6.316 -0.8690  1.0385 -0.0916
 5742SOL     H243426   2.788   6.458   6.285 -0.7362  1.1614  0.7466
 5743SOL    OH243427   6.546   6.876   0.704 -0.7217  0.1503 -0.5451
 5743SOL     H143428   6.519   6.968   0.708  1.8797  0.9143  1.4091
 5743SOL     H243429   6.641   6.880   0.691 -0.3496 -2.2087  1.1427
 5744SOL    OH243430   4.821   0.728   0.705 -0.3015 -0.0571 -0.1853
 5744SOL     H143431   4.809   0.753   0.796  0.8164  0.6324 -0.2196
 5744SOL     H243432   4.767   0.649   0.694 -3.1238  1.7392  0.1690
 5745SOL    OH243433   0.423   2.783   6.647  0.0730  0.6675 -0.0207
 5745SOL     H143434   0.495   2.725   6.620  1.6161  1.1496  2.7688
 5745SOL     H243435   0.461   2.871   6.645 -1.0934  1.1685 -0.5231
 5746SOL    OH243436   3.600   2.249   0.915  0.0837 -0.3180  0.0092
 5746SOL     H143437   3.569   2.221   0.829 -0.3799  0.8555 -0.2211
 5746SOL     H243438   3.546   2.325   0.936  0.3683 -0.4430  1.2261
 5747SOL    OH243439   1.490   4.763   2.074  0.3843 -0.3019  0.1832
 5747SOL     H143440   1.456   4.832   2.131 -0.7980 -0.2202 -0.5938
 5747SOL     H243441   1.412   4.721   2.039  1.0750  0.1109 -1.9148
 5748SOL    OH243442   4.335   5.897   0.711  0.0317 -0.2889 -0.5832
 5748SOL     H143443   4.300   5.958   0.777  0.1355  0.8470 -1.5563
 5748SOL     H243444   4.350   5.952   0.634  1.2116 -1.3417 -1.1070
 5749SOL    OH243445   1.277   6.163   6.729  0.1154 -0.0756 -0.1235
 5749SOL     H143446   1.329   6.100   6.681  1.3371 -0.0760  1.1624
 5749SOL     H243447   1.248   6.226   6.663  3.4353  1.0529 -0.5890
 5750SOL    OH243448   4.284   6.845   6.851 -0.6546  0.0457 -0.3920
 5750SOL     H143449   4.342   6.828   6.925 -0.0583 -1.7443 -1.2441
 5750SOL     H243450   4.198   6.858   6.890 -0.0759  0.5756  0.7145
 5751SOL    OH243451   7.949   7.343   0.146  0.4473 -0.0147 -0.1097
 5751SOL     H143452   7.911   7.311   0.065 -1.0430 -0.4676  0.7408
 5751SOL     H243453   8.015   7.278   0.170  0.4858 -0.1743 -0.6514
 5752SOL    OH243454   6.630   7.403   2.161  0.5201 -0.6289 -0.4257
 5752SOL     H143455   6.684   7.377   2.235 -1.4067 -2.2269  0.4519
 5752SOL     H243456   6.572   7.329   2.146  0.0338  0.1738 -2.7557
 5753SOL    OH243457   2.947   1.241   7.769  0.0541 -0.1106 -0.1568
 5753SOL     H143458   2.962   1.274   7.857 -2.9111  0.2888  0.2496
 5753SOL     H243459   2.946   1.146   7.779  0.8266 -0.0998  0.0407
 5754SOL    OH243460   6.123   6.085   6.667  0.2424  0.1036  0.0069
 5754SOL     H143461   6.150   6.007   6.617 -0.2320  0.1957 -0.3960
 5754SOL     H243462   6.201   6.140   6.668  0.6533 -0.4721  0.4843
 5755SOL    OH243463   6.093   1.319   0.612 -0.0252 -0.2694  0.1885
 5755SOL     H143464   6.105   1.382   0.541 -0.6025 -0.5546 -0.1739
 5755SOL     H243465   6.008   1.278   0.593  0.3539 -1.1746  0.3978
 5756SOL    OH243466   5.352   6.157   8.038  0.2294  0.0710 -0.2054
 5756SOL     H143467   5.286   6.101   8.080  1.0727  0.2164  1.3381
 5756SOL     H243468   5.420   6.097   8.009 -0.4784 -0.0552 -1.6080
 5757SOL    OH243469   6.785   5.284   2.505  0.3141  0.3221 -0.3396
 5757SOL     H143470   6.827   5.200   2.523 -1.1858 -0.3798 -0.0245
 5757SOL     H243471   6.838   5.323   2.435  2.2049  0.0286  0.8851
 5758SOL    OH243472   6.786   6.170   1.461 -0.3640 -0.1071 -0.2712
 5758SOL     H143473   6.791   6.120   1.380 -0.9738  0.8921 -0.9351
 5758SOL     H243474   6.842   6.246   1.445 -0.6517  0.1952  0.1619
 5759SOL    OH243475   0.554   5.793   1.072 -0.1015  0.0691 -0.7865
 5759SOL     H143476   0.471   5.745   1.078  0.1804 -0.2305  0.9371
 5759SOL     H243477   0.568   5.805   0.978 -1.9528 -0.1319 -1.1121
 5760SOL    OH243478   0.060   6.318   6.856 -0.4089  0.5322 -0.1836
 5760SOL     H143479   0.110   6.293   6.933 -1.4102  0.5337  0.4724
 5760SOL     H243480   0.126   6.348   6.793  0.4257  0.2987  0.5747
 5761SOL    OH243481   0.429   3.494   7.843 -0.0091 -0.0493  0.6139
 5761SOL     H143482   0.475   3.427   7.894 -1.8315 -0.9119  1.1871
 5761SOL     H243483   0.498   3.554   7.813  1.3891 -0.9490  1.9618
 5762SOL    OH243484   1.776   1.525   5.967 -0.0069 -0.3274  0.1369
 5762SOL     H143485   1.741   1.606   6.004  2.5303 -0.4588  3.0533
 5762SOL     H243486   1.719   1.456   6.001 -1.0899  0.0517 -0.8868
 5763SOL    OH243487   1.273   2.486   8.137 -0.8862  0.0351  0.3215
 5763SOL     H143488   1.364   2.457   8.129 -1.4339 -1.5785 -0.2701
 5763SOL     H243489   1.276   2.555   8.204  0.6999 -0.2834  0.6082
 5764SOL    OH243490   4.605   3.116   2.153  0.1924  0.3112 -0.0245
 5764SOL     H143491   4.657   3.183   2.196 -0.7996  1.2765 -0.2914
 5764SOL     H243492   4.519   3.122   2.196  0.2975 -1.2640  0.4288
 5765SOL    OH243493   2.458   2.039   6.491 -0.1480 -0.0616  0.1898
 5765SOL     H143494   2.522   2.052   6.561 -0.5681 -0.1765  0.6020
 5765SOL     H243495   2.467   1.947   6.466 -1.0942 -0.4421  1.1995
 5766SOL    OH243496   0.903   0.806   1.587  0.1083  0.3139 -0.1572
 5766SOL     H143497   0.979   0.751   1.605 -0.1633 -0.0918 -0.2179
 5766SOL     H243498   0.883   0.847   1.671  0.1184  0.0649 -0.0319
 5767SOL    OH243499   6.194   5.625   0.371 -0.4684  0.6247  0.2530
 5767SOL     H143500   6.108   5.644   0.332  0.0861  0.4979 -1.0433
 5767SOL     H243501   6.179   5.548   0.426 -0.9067 -0.1434 -0.9391
 5768SOL    OH243502   4.566   6.855   1.542  0.7839  0.1485  0.0088
 5768SOL     H143503   4.567   6.940   1.497 -0.2551  0.2787  0.2111
 5768SOL     H243504   4.501   6.865   1.611 -1.0962 -1.5538 -1.4408
 5769SOL    OH243505   0.913   7.688   1.930  0.5281  0.3259  0.1180
 5769SOL     H143506   0.915   7.669   1.836  0.6156 -1.5886  0.4831
 5769SOL     H243507   1.004   7.679   1.958  0.3973  0.2164  0.5089
 5770SOL    OH243508   2.203   6.138   7.654 -0.1036  0.3528 -0.2862
 5770SOL     H143509   2.187   6.113   7.563  0.8776  1.0812 -0.6786
 5770SOL     H243510   2.297   6.123   7.666  0.0005  1.3867  0.2313
 5771SOL    OH243511   5.989   0.356   7.183 -0.1857 -0.1901  0.1320
 5771SOL     H143512   5.923   0.413   7.143  1.2205  0.7153 -0.9596
 5771SOL     H243513   6.072   0.385   7.144  1.1591  0.1766  3.1016
 5772SOL    OH243514   4.118   1.364   0.916 -0.1348 -0.3045  0.1776
 5772SOL     H143515   4.102   1.451   0.879  0.0250 -0.2858  0.1522
 5772SOL     H243516   4.208   1.343   0.890  0.2402  0.0162  1.1806
 5773SOL    OH243517   6.764   0.463   7.917 -0.3351  0.7590 -0.2938
 5773SOL     H143518   6.726   0.375   7.913  0.0566  0.5546  0.3128
 5773SOL     H243519   6.698   0.517   7.960 -1.5469  1.3096 -2.7837
 5774SOL    OH243520   2.849   6.938   6.893 -0.4374  0.3233  0.1874
 5774SOL     H143521   2.865   7.014   6.837 -0.3264  0.5160  0.4817
 5774SOL     H243522   2.800   6.973   6.968  0.0106  0.1839  0.5450
 5775SOL    OH243523   4.177   0.525   1.296 -0.5305 -0.0551  0.4423
 5775SOL     H143524   4.114   0.588   1.260  0.0161 -0.4531 -1.2458
 5775SOL     H243525   4.226   0.495   1.220  2.2053  0.7837  1.8261
 5776SOL    OH243526   1.967   4.108   1.545 -0.0836  0.2430  0.1964
 5776SOL     H143527   1.901   4.107   1.614  0.2829  0.4427  0.5545
 5776SOL     H243528   1.973   4.200   1.520 -0.8226  0.0543 -0.6932
 5777SOL    OH243529   1.471   0.714   5.825  0.9024  0.0226 -0.6390
 5777SOL     H143530   1.417   0.742   5.752  0.7856  0.1778 -0.4933
 5777SOL     H243531   1.411   0.668   5.883  0.6416  1.3904  0.1904
 5778SOL    OH243532   5.765   3.715   1.653  0.8615  0.1282 -0.2784
 5778SOL     H143533   5.790   3.640   1.599 -0.7341 -1.0361  0.5407
 5778SOL     H243534   5.833   3.720   1.721  0.6826 -0.9276 -0.0188
 5779SOL    OH243535   2.092   6.721   0.068 -0.5927 -0.8729  0.0253
 5779SOL     H143536   2.158   6.735   0.136 -0.3413 -3.0012  0.2367
 5779SOL     H243537   2.134   6.664   0.004 -2.2587 -2.3900  0.2354
 5780SOL    OH243538   2.160   6.986   6.072 -0.0117 -0.4453 -0.4034
 5780SOL     H143539   2.128   6.905   6.032  1.6798 -1.5647  0.4386
 5780SOL     H243540   2.147   6.974   6.166  2.4950 -0.8281 -0.0511
 5781SOL    OH243541   7.226   4.189   7.357 -0.2745  0.3414 -0.6155
 5781SOL     H143542   7.226   4.225   7.268  0.4842  2.1680  0.0750
 5781SOL     H243543   7.134   4.169   7.375 -0.5943  1.0237 -1.4234
 5782SOL    OH243544   6.980   7.448   0.984  0.4471  0.1528  0.7333
 5782SOL     H143545   6.906   7.471   1.041 -1.1090  1.5163 -1.7387
 5782SOL     H243546   7.047   7.515   1.003 -0.8833  1.8916 -0.4729
 5783SOL    OH243547   4.573   2.246   0.066  0.0271  0.6815 -0.3047
 5783SOL     H143548   4.493   2.247   0.118  0.1535  2.0342 -0.1095
 5783SOL     H243549   4.558   2.312  -0.002  0.5315  0.1370 -0.9495
 5784SOL    OH243550   6.299   0.696   7.085 -0.1727 -0.2144 -0.4338
 5784SOL     H143551   6.368   0.719   7.023  0.3078  0.6847  0.4176
 5784SOL     H243552   6.340   0.630   7.142 -0.5341 -0.8573 -0.9155
 5785SOL    OH243553   0.617   4.949   2.435 -0.0328  0.0374 -0.0099
 5785SOL     H143554   0.559   4.914   2.368 -0.1293 -2.6530  1.4060
 5785SOL     H243555   0.562   4.960   2.512  0.4798  1.3247  0.1888
 5786SOL    OH243556   0.972   1.120   8.228 -0.3474 -0.4480  0.1648
 5786SOL     H143557   1.042   1.110   8.164  0.6348 -3.2905  1.6049
 5786SOL     H243558   0.891   1.109   8.178  0.3766 -1.3832 -0.8063
 5787SOL    OH243559   6.618   1.610   6.727 -0.2747  1.0363 -0.1908
 5787SOL     H143560   6.658   1.673   6.667  1.2148  0.5259  0.2455
 5787SOL     H243561   6.689   1.584   6.786 -0.5989 -1.8040 -0.9887
 5788SOL    OH243562   1.032   5.885   1.539 -0.1469 -0.7169 -0.3560
 5788SOL     H143563   1.021   5.798   1.501 -0.1269 -2.2579  3.0439
 5788SOL     H243564   0.958   5.895   1.598  0.5163  1.0617  0.2067
 5789SOL    OH243565   0.975   5.458   7.541  0.6865  0.3098  0.5078
 5789SOL     H143566   1.063   5.437   7.512  0.5320 -0.6348  0.6927
 5789SOL     H243567   0.933   5.499   7.465  0.7091 -0.9115 -0.1782
 5790SOL    OH243568   7.698   5.634   1.497  0.5556 -0.1490  0.0882
 5790SOL     H143569   7.613   5.610   1.535  0.1207  0.0625 -0.7467
 5790SOL     H243570   7.759   5.571   1.535 -0.1860 -1.0929 -0.2581
 5791SOL    OH243571   4.191   3.719   1.435  0.1370 -0.2666  0.3131
 5791SOL     H143572   4.223   3.807   1.421  0.7963 -0.6228 -0.4480
 5791SOL     H243573   4.229   3.692   1.519 -0.8395  0.5137  1.0177
 5792SOL    OH243574   6.746   3.965   7.576 -0.0546 -0.2298 -0.5872
 5792SOL     H143575   6.676   3.923   7.626  0.1021 -1.5860 -1.4819
 5792SOL     H243576   6.701   4.022   7.514 -0.3686 -0.7913 -0.8867
 5793SOL    OH243577   1.768   6.104   6.732 -0.1331 -0.0684 -0.0988
 5793SOL     H143578   1.695   6.084   6.791  1.4241 -0.8851  1.5804
 5793SOL     H243579   1.734   6.174   6.677 -1.0301  2.0232  2.9754
 5794SOL    OH243580   7.525   1.492   7.903 -0.6046  0.2816 -0.7487
 5794SOL     H143581   7.553   1.476   7.813  2.1391  1.3187 -0.1274
 5794SOL     H243582   7.556   1.580   7.923 -1.1125  0.0436  1.2499
 5795SOL    OH243583   4.884   1.571   6.404  0.1018  0.2011 -0.0513
 5795SOL     H143584   4.925   1.491   6.435 -3.2063 -1.8901 -0.8511
 5795SOL     H243585   4.833   1.603   6.478 -1.2972 -0.3302 -0.7680
 5796SOL    OH243586   1.625   0.824   0.090 -0.4587  0.3881  0.3521
 5796SOL     H143587   1.537   0.828   0.051  0.1089 -1.0543 -1.1228
 5796SOL     H243588   1.660   0.740   0.061  1.5919  1.1365  0.6018
 5797SOL    OH243589   6.651   3.828   0.679 -0.7740 -0.4897 -0.3295
 5797SOL     H143590   6.563   3.790   0.678 -1.3780  0.8773  0.1180
 5797SOL     H243591   6.651   3.891   0.608  0.4452 -1.7729 -1.4914
 5798SOL    OH243592   0.879   0.935   0.955  0.1354  0.4121  0.0086
 5798SOL     H143593   0.828   1.016   0.944 -1.0469 -0.3703 -0.3299
 5798SOL     H243594   0.929   0.927   0.874  1.4325  1.6103  0.6689
 5799SOL    OH243595   7.675   4.818   1.809 -0.3158 -0.3229 -0.1796
 5799SOL     H143596   7.623   4.885   1.854 -0.9671 -0.6755 -0.3941
 5799SOL     H243597   7.622   4.794   1.733  1.1054  0.8030 -1.5667
 5800SOL    OH243598   3.860   5.465   6.730  0.1705  0.3332  0.3816
 5800SOL     H143599   3.920   5.540   6.735 -1.1443  1.5560 -1.4558
 5800SOL     H243600   3.775   5.502   6.753 -0.4904 -0.5989 -0.5565
 5801SOL    OH243601   3.403   0.047   1.741 -0.1471 -0.6291 -0.1248
 5801SOL     H143602   3.414   0.016   1.651 -0.6839 -0.4065 -0.2659
 5801SOL     H243603   3.341  -0.015   1.780  1.0610 -1.4891  0.4786
 5802SOL    OH243604   1.420   3.462   6.626  0.1173  0.3447  0.0533
 5802SOL     H143605   1.370   3.540   6.650 -0.5657  0.1964 -0.8509
 5802SOL     H243606   1.454   3.428   6.709 -0.3062  1.1148  0.5423
 5803SOL    OH243607   0.236   4.779   0.782 -0.4060  0.2681  0.0276
 5803SOL     H143608   0.179   4.831   0.838 -2.4658 -1.5680 -0.3286
 5803SOL     H243609   0.213   4.689   0.801  1.2685 -0.4668 -1.3050
 5804SOL    OH243610   3.871   2.428   6.438 -0.4739 -0.0014  0.1725
 5804SOL     H143611   3.848   2.504   6.491 -1.9446  1.1095 -1.9929
 5804SOL     H243612   3.825   2.441   6.355  0.1686 -2.6886 -0.6662
 5805SOL    OH243613   5.257   2.663   1.993  0.6328 -0.1652 -0.6321
 5805SOL     H143614   5.195   2.728   2.025 -0.3192 -0.9989 -0.7384
 5805SOL     H243615   5.319   2.713   1.940 -1.3036  0.4102 -2.4726
 5806SOL    OH243616   4.922   0.109   5.843  0.4406  0.1234  0.5875
 5806SOL     H143617   4.926   0.057   5.762 -3.5512 -1.3622  1.2320
 5806SOL     H243618   4.955   0.051   5.911 -1.1462 -0.5061  0.8293
 5807SOL    OH243619   6.063   6.512   7.086 -0.0606  0.2580  0.3633
 5807SOL     H143620   6.065   6.441   7.149  3.2407  1.2150  1.4072
 5807SOL     H243621   5.990   6.567   7.114 -1.0667 -1.3729  1.0013
 5808SOL    OH243622   2.671   3.456   8.140  0.1813 -0.6327  0.0535
 5808SOL     H143623   2.693   3.510   8.216  0.5944 -1.7019  0.7145
 5808SOL     H243624   2.671   3.516   8.066 -0.3056  0.4431  0.9152
 5809SOL    OH243625   0.168   3.031   1.110  0.2481  0.6011  0.3249
 5809SOL     H143626   0.198   3.113   1.148 -0.7408  0.3177  1.7318
 5809SOL     H243627   0.245   2.996   1.064  1.1501  1.4621  1.1630
 5810SOL    OH243628   3.464   2.159   0.691 -0.2195 -0.1620  0.4685
 5810SOL     H143629   3.474   2.165   0.596 -1.1508 -3.1217  0.1110
 5810SOL     H243630   3.474   2.065   0.709  0.0445  0.3811  3.3146
 5811SOL    OH243631   0.117   5.402   0.916  0.3621  0.4919 -0.3964
 5811SOL     H143632   0.173   5.413   0.993 -3.4509 -1.3681  2.7513
 5811SOL     H243633   0.050   5.470   0.925 -0.8993 -0.6151 -1.3649
 5812SOL    OH243634   6.836   4.179   8.041 -0.0516 -0.0031  0.0421
 5812SOL     H143635   6.828   4.194   7.947 -1.4858  1.2274  0.3255
 5812SOL     H243636   6.832   4.267   8.079 -0.5080 -0.5655  1.3084
 5813SOL    OH243637   4.094   7.048   7.385 -0.0625 -0.7343  0.1262
 5813SOL     H143638   4.187   7.054   7.361 -0.0315 -1.1249  0.1289
 5813SOL     H243639   4.081   7.117   7.450  0.1138 -0.3730 -0.2238
 5814SOL    OH243640   4.397   3.993   7.651  0.3210  0.7903  0.1830
 5814SOL     H143641   4.359   4.081   7.653  0.1975  0.7373  0.1272
 5814SOL     H243642   4.455   3.991   7.728 -1.1273  0.2605  1.2926
 5815SOL    OH243643   3.900   2.956   7.493 -0.8227  0.0267  0.0118
 5815SOL     H143644   3.869   3.011   7.422 -2.4070  0.9517  1.3757
 5815SOL     H243645   3.820   2.925   7.536  0.0831 -1.6110  0.5691
 5816SOL    OH243646   7.437   2.096   1.198  0.1857 -0.6261  0.0646
 5816SOL     H143647   7.452   2.125   1.288  0.2757 -0.5609  0.0284
 5816SOL     H243648   7.416   2.003   1.207  1.3856 -0.9035  0.0466
 5817SOL    OH243649   5.539   0.658   7.025  0.5359 -0.4051  0.0047
 5817SOL     H143650   5.572   0.733   6.975 -0.5034  1.7501  2.4372
 5817SOL     H243651   5.449   0.648   6.997  1.0049 -1.5076 -1.1545
 5818SOL    OH243652   6.225   6.631   8.049 -0.5558  0.1930 -0.0272
 5818SOL     H143653   6.182   6.549   8.027 -1.6936  1.2770 -2.0742
 5818SOL     H243654   6.232   6.630   8.144 -1.6520 -1.7234  0.0650
 5819SOL    OH243655   0.934   1.931   1.503  0.6239 -0.7831  0.0887
 5819SOL     H143656   0.882   1.851   1.514 -1.0026  0.3487  0.9131
 5819SOL     H243657   0.870   1.997   1.474  1.6269  0.5857  0.9280
 5820SOL    OH243658   1.860   6.178   2.448 -0.2842  0.7289 -0.2430
 5820SOL     H143659   1.886   6.246   2.386  0.8305  1.6083  1.1727
 5820SOL     H243660   1.819   6.110   2.393 -0.0675  1.8540 -1.8308
 5821SOL    OH243661   2.716   0.980   0.872 -0.2213 -0.1505  0.0774
 5821SOL     H143662   2.742   0.946   0.786  0.3658 -1.1412  0.6320
 5821SOL     H243663   2.632   0.938   0.890 -0.3931  0.1355 -0.0575
 5822SOL    OH243664   2.487   1.444   7.472  0.2588 -0.0668  0.6449
 5822SOL     H143665   2.433   1.486   7.405  1.5548  1.3237  0.4320
 5822SOL     H243666   2.483   1.505   7.546 -0.9376 -1.4564  1.7417
 5823SOL    OH243667   5.846   6.124   0.439  0.4061  0.8633 -0.1012
 5823SOL     H143668   5.928   6.171   0.454 -0.5090  2.0477  1.3050
 5823SOL     H243669   5.821   6.093   0.526 -0.4537  0.1975 -0.5903
 5824SOL    OH243670   3.888   6.574   0.302  0.0896 -0.3201 -0.0076
 5824SOL     H143671   3.940   6.495   0.320 -0.6728 -0.4483  1.7348
 5824SOL     H243672   3.951   6.639   0.274  1.1169 -0.6493  1.5197
 5825SOL    OH243673   6.509   0.099   1.221 -0.3995  0.4422 -0.4972
 5825SOL     H143674   6.456   0.144   1.287 -1.6506 -0.7636 -0.6550
 5825SOL     H243675   6.599   0.115   1.248 -0.8908 -0.4105  1.8132
 5826SOL    OH243676   2.819   3.451   7.341  0.3268 -0.0436  0.3041
 5826SOL     H143677   2.862   3.462   7.426 -0.5588 -0.6111  0.8291
 5826SOL     H243678   2.869   3.381   7.298  1.1051  0.6080  0.1334
 5827SOL    OH243679   6.679   4.484   1.227 -0.4966  0.2919 -0.2690
 5827SOL     H143680   6.769   4.514   1.215 -0.0854 -0.7760  0.1163
 5827SOL     H243681   6.629   4.532   1.161  0.7739 -1.0494 -2.2584
 5828SOL    OH243682   1.579   2.524   7.282  0.3757  0.0241 -0.0943
 5828SOL     H143683   1.497   2.572   7.270 -0.3918 -1.0243  0.8028
 5828SOL     H243684   1.584   2.510   7.377  2.5315  1.6849  0.0637
 5829SOL    OH243685   5.624   3.903   1.767  0.3977 -0.3803 -0.0339
 5829SOL     H143686   5.618   3.966   1.695 -1.0402 -1.1800 -0.6363
 5829SOL     H243687   5.674   3.830   1.731  1.7689  0.2515  0.5565
 5830SOL    OH243688   4.143   2.900   7.587  0.4247 -0.1773  0.2334
 5830SOL     H143689   4.053   2.926   7.567  0.4601  1.4177  1.9541
 5830SOL     H243690   4.134   2.832   7.654  0.4854 -0.2303  0.1880
 5831SOL    OH243691   3.294   3.838   6.739 -0.0149 -0.0012  0.1226
 5831SOL     H143692   3.336   3.824   6.824  0.7434  0.7851 -0.1231
 5831SOL     H243693   3.240   3.916   6.752 -1.0848 -0.7549  0.3105
 5832SOL    OH243694   6.128   1.095   7.759 -0.7328  0.0185  0.1126
 5832SOL     H143695   6.138   1.082   7.665  0.7523 -1.1657  0.4165
 5832SOL     H243696   6.172   1.020   7.799 -0.4579  1.0285  1.7668
 5833SOL    OH243697   6.744   6.372   8.179 -0.2447 -0.1163  0.2404
 5833SOL     H143698   6.833   6.397   8.156 -0.5698 -1.4428 -2.6729
 5833SOL     H243699   6.703   6.453   8.208  1.1193  1.0426 -1.0056
 5834SOL    OH243700   2.595   7.826   1.625  0.2257  0.7078 -1.0790
 5834SOL     H143701   2.602   7.731   1.613  2.3172  0.8693 -1.2735
 5834SOL     H243702   2.513   7.849   1.582 -0.5637 -1.0848 -0.5798
 5835SOL    OH243703   3.929   2.898   8.067  0.2591  0.0981  0.0943
 5835SOL     H143704   3.990   2.967   8.041 -0.7795  0.7468 -0.7071
 5835SOL     H243705   3.940   2.889   8.162  2.2645 -0.4717 -0.1758
 5836SOL    OH243706   3.075   0.515   7.005 -0.2298  0.6382  0.0026
 5836SOL     H143707   2.989   0.550   6.982 -0.2812  0.7439  0.3477
 5836SOL     H243708   3.134   0.555   6.941 -0.5993 -0.3282 -0.9452
 5837SOL    OH243709   0.694   1.215   7.541 -0.2129  0.1498 -0.2219
 5837SOL     H143710   0.659   1.131   7.509 -1.1816  0.5723 -0.2958
 5837SOL     H243711   0.789   1.203   7.543 -0.4661 -2.0745  2.8280
 5838SOL    OH243712   7.780   2.554   0.239  0.4995 -0.7145 -0.5225
 5838SOL     H143713   7.705   2.554   0.298  1.2415  1.5430  0.4748
 5838SOL     H243714   7.818   2.467   0.247  0.2314 -0.6269  1.8904
 5839SOL    OH243715   6.422   1.052   2.115  0.1389 -0.3570 -0.0011
 5839SOL     H143716   6.391   1.029   2.203 -0.6308  0.7650  0.0409
 5839SOL     H243717   6.389   0.982   2.059 -2.1198  0.5504  0.1268
 5840SOL    OH243718   7.309   0.633   1.312 -0.1207 -0.3724  0.1235
 5840SOL     H143719   7.245   0.687   1.267 -0.5861 -1.0608 -0.0387
 5840SOL     H243720   7.273   0.545   1.311  1.5989 -1.0885 -1.4281
 5841SOL    OH243721   5.783   0.953   0.892  0.0700 -0.2358 -0.1159
 5841SOL     H143722   5.841   0.966   0.817  1.4362 -1.6510  0.6805
 5841SOL     H243723   5.837   0.975   0.968 -0.8263 -0.3493  0.5615
 5842SOL    OH243724   4.910   4.537   7.502  0.2700 -0.0051  0.5886
 5842SOL     H143725   4.835   4.591   7.524  1.3943  0.9586  2.2351
 5842SOL     H243726   4.874   4.460   7.459 -1.5366  1.0109  0.2671
 5843SOL    OH243727   6.496   0.288   1.955 -0.5514 -0.1360  0.3725
 5843SOL     H143728   6.522   0.232   2.028  1.0508 -0.4947 -0.4611
 5843SOL     H243729   6.502   0.232   1.877 -0.6905  0.6839 -0.2471
 5844SOL    OH243730   4.308   6.439   6.476  0.3533 -0.8410 -0.1943
 5844SOL     H143731   4.326   6.402   6.390  0.5938 -1.8750  0.2877
 5844SOL     H243732   4.249   6.375   6.517 -0.1696 -0.1056  0.2108
 5845SOL    OH243733   0.395   5.530   0.100 -0.3292 -0.3844 -0.2729
 5845SOL     H143734   0.373   5.519   0.008 -0.6740 -2.4304  0.0368
 5845SOL     H243735   0.312   5.517   0.146 -0.1003  0.3347  0.3463
 5846SOL    OH243736   2.845   0.992   1.828  1.1046  0.3913 -0.5955
 5846SOL     H143737   2.821   1.002   1.735  1.6618  1.4528 -0.6378
 5846SOL     H243738   2.924   0.938   1.826  0.9591  0.1838 -0.7294
 5847SOL    OH243739   6.825   0.892   6.296  0.1670 -0.0820  0.2031
 5847SOL     H143740   6.773   0.895   6.216  1.5278 -1.2430 -0.7439
 5847SOL     H243741   6.899   0.950   6.279  1.7219 -2.1767 -0.3109
 5848SOL    OH243742   6.163   2.004   0.815 -0.4975 -0.0061  0.3290
 5848SOL     H143743   6.098   2.017   0.745  1.9004  0.7293 -1.8118
 5848SOL     H243744   6.179   1.910   0.816 -0.2363  0.0274 -0.4072
 5849SOL    OH243745   1.389   7.588   7.370  0.0134  0.3158 -0.1148
 5849SOL     H143746   1.317   7.645   7.398 -0.0832  1.1839 -2.0725
 5849SOL     H243747   1.347   7.505   7.347  0.0088 -0.1612  1.5204
 5850SOL    OH243748   4.619   1.264   2.233  0.2882  0.6235 -0.0577
 5850SOL     H143749   4.675   1.275   2.310 -1.1627 -0.6428  1.2123
 5850SOL     H243750   4.588   1.174   2.239  0.7862  0.2544 -2.5787
 5851SOL    OH243751   3.626   5.169   0.244 -0.2602 -0.5507  0.0241
 5851SOL     H143752   3.608   5.257   0.213  0.6454  0.1973  1.5633
 5851SOL     H243753   3.557   5.152   0.309 -0.6486 -1.1225 -0.5296
 5852SOL    OH243754   4.873   7.738   0.989  0.0488  0.0010  0.9765
 5852SOL     H143755   4.938   7.795   1.031  0.7739  0.9493 -1.3522
 5852SOL     H243756   4.807   7.723   1.057  0.7930  2.0993  2.2128
 5853SOL    OH243757   1.611   1.745   7.058  0.4111  0.1134 -0.2826
 5853SOL     H143758   1.660   1.752   7.140 -0.2958  1.0518  0.0622
 5853SOL     H243759   1.654   1.807   6.999  2.6122 -2.4423 -1.5146
 5854SOL    OH243760   2.184   3.721   0.531 -0.2199 -0.6060 -0.0326
 5854SOL     H143761   2.179   3.791   0.467  1.6123  0.1826  0.6302
 5854SOL     H243762   2.225   3.648   0.484 -0.5463 -0.6425 -0.2570
 5855SOL    OH243763   3.106   6.689   0.811 -0.0756 -0.0686 -0.4850
 5855SOL     H143764   3.140   6.654   0.728  1.4154 -3.4604  1.4634
 5855SOL     H243765   3.124   6.621   0.875  0.2368  3.1374  3.0025
 5856SOL    OH243766   7.313   6.243   6.511  0.1493 -0.4514  0.3273
 5856SOL     H143767   7.405   6.270   6.511 -0.5071  1.8378  0.4347
 5856SOL     H243768   7.302   6.198   6.427  1.1773 -0.0851 -0.0114
 5857SOL    OH243769   0.859   1.600   6.074  0.1046  0.0619 -0.0052
 5857SOL     H143770   0.854   1.583   5.980  0.6927  0.7470 -0.1620
 5857SOL     H243771   0.886   1.691   6.080 -0.9888  0.3487  0.8278
 5858SOL    OH243772   5.818   1.325   1.026 -0.3383 -0.3094  0.2189
 5858SOL     H143773   5.904   1.287   1.042 -0.1748 -0.0095  0.0611
 5858SOL     H243774   5.836   1.411   0.988 -0.6958  0.7635  2.4256
 5859SOL    OH243775   3.442   7.579   1.721  0.2992  0.1027 -0.0469
 5859SOL     H143776   3.483   7.589   1.807 -0.5999 -0.0644  0.4035
 5859SOL     H243777   3.515   7.588   1.659  1.1658 -1.0028  0.7737
 5860SOL    OH243778   0.572   0.137  -0.008  0.3117  0.1778  0.3505
 5860SOL     H143779   0.642   0.078   0.020  0.4666  0.3655  0.3585
 5860SOL     H243780   0.588   0.218   0.041 -0.3742 -0.0497  0.9598
 5861SOL    OH243781   3.522   4.036   1.057 -0.6036 -0.0160 -0.0539
 5861SOL     H143782   3.510   4.129   1.035  1.6833  0.2604 -0.2416
 5861SOL     H243783   3.563   4.037   1.143 -2.4861 -0.9410  0.8938
 5862SOL    OH243784   6.279   3.112   7.889 -0.1070  0.3244  0.2387
 5862SOL     H143785   6.287   3.019   7.910  0.4589  1.1558  4.0992
 5862SOL     H243786   6.192   3.137   7.922 -0.9901  0.8061 -2.3733
 5863SOL    OH243787   7.848   1.405   0.778 -0.3746  0.1324  0.1256
 5863SOL     H143788   7.908   1.474   0.752 -1.9761  1.7887  0.7332
 5863SOL     H243789   7.773   1.413   0.719 -0.8646 -0.6636  0.6170
 5864SOL    OH243790   5.050   1.447   6.137  0.1737 -0.2182 -0.4904
 5864SOL     H143791   5.064   1.441   6.232  1.0533  0.7620 -0.5551
 5864SOL     H243792   5.118   1.391   6.099 -0.4207 -0.9190 -0.5334
 5865SOL    OH243793   1.484   6.066   2.027  0.4444  0.3921  0.1499
 5865SOL     H143794   1.554   6.036   2.085  0.8305  1.3719  0.2096
 5865SOL     H243795   1.411   6.085   2.086  0.2717 -0.2121  0.1340
 5866SOL    OH243796   6.611   4.173   1.756 -0.5055  0.3371  0.6988
 5866SOL     H143797   6.660   4.172   1.673  0.0511 -0.6531  1.0391
 5866SOL     H243798   6.583   4.265   1.765  0.0829  0.6179 -0.1985
 5867SOL    OH243799   5.322   7.461   1.745  0.2103 -0.1626 -0.0935
 5867SOL     H143800   5.382   7.413   1.687  0.1174  0.8083 -1.0073
 5867SOL     H243801   5.250   7.488   1.688 -0.1254  0.3815  0.5849
 5868SOL    OH243802   6.620   5.284   7.730  0.9711  0.1013  0.6962
 5868SOL     H143803   6.605   5.256   7.821  2.2121 -2.0832  0.2684
 5868SOL     H243804   6.711   5.313   7.729  0.8032  0.6119  0.2615
 5869SOL    OH243805   7.818   0.474   6.179  0.5601  0.0677 -0.8749
 5869SOL     H143806   7.741   0.530   6.164  0.9250  0.7578 -0.2065
 5869SOL     H243807   7.884   0.508   6.119  0.3921 -0.4419 -1.3539
 5870SOL    OH243808   4.553   3.196   0.574 -0.2902  0.0687  0.1131
 5870SOL     H143809   4.566   3.223   0.483 -0.9359  0.5971  0.1714
 5870SOL     H243810   4.496   3.263   0.611 -1.5298 -1.1088  0.3975
 5871SOL    OH243811   3.643   0.455   7.125  0.2991 -0.0029  0.0674
 5871SOL     H143812   3.705   0.456   7.052 -0.8820 -1.9983 -0.9774
 5871SOL     H243813   3.656   0.370   7.166 -0.7966  0.1239  0.6930
 5872SOL    OH243814   0.307   6.372   6.163  0.0049  0.2005  0.0332
 5872SOL     H143815   0.272   6.397   6.078 -1.2774 -0.5388  0.3114
 5872SOL     H243816   0.258   6.425   6.226 -2.8817 -2.9672  0.6398
 5873SOL    OH243817   3.113   5.700   7.369 -0.6852  0.6898 -0.1799
 5873SOL     H143818   3.175   5.650   7.422 -1.7681 -0.9737 -0.4144
 5873SOL     H243819   3.065   5.754   7.432 -1.4446 -0.7014  0.4516
 5874SOL    OH243820   2.710   5.659   5.784 -0.5968 -0.4507  0.2099
 5874SOL     H143821   2.710   5.579   5.732 -0.1843 -2.1819  2.8265
 5874SOL     H243822   2.620   5.692   5.779 -0.7958 -1.1440 -0.7528
 5875SOL    OH243823   6.216   5.001   0.327  0.7617  0.0396 -0.1964
 5875SOL     H143824   6.278   5.046   0.270  1.0777  0.1611  0.2368
 5875SOL     H243825   6.271   4.949   0.386  0.4178 -0.4715 -0.3292
 5876SOL    OH243826   5.477   6.018   2.065  0.0671  0.3979 -0.3619
 5876SOL     H143827   5.408   6.005   2.130  0.1566  1.6337 -0.0114
 5876SOL     H243828   5.558   6.009   2.115  0.1620 -0.3608 -0.6422
 5877SOL    OH243829   0.967   6.428   7.958 -0.0675  0.4417  0.6977
 5877SOL     H143830   1.044   6.468   7.999 -1.0843  0.8885  2.1826
 5877SOL     H243831   0.953   6.481   7.879  0.0388  1.5242  1.3958
 5878SOL    OH243832   6.905   6.343   0.859 -0.0895 -0.1058  0.2522
 5878SOL     H143833   6.950   6.420   0.894  0.1424  0.4741 -1.3128
 5878SOL     H243834   6.945   6.269   0.906  1.4594  0.5303 -0.0501
 5879SOL    OH243835   6.039   2.745   2.480  0.3546 -0.3421 -0.4850
 5879SOL     H143836   6.043   2.690   2.558 -1.7479 -1.0536 -0.8535
 5879SOL     H243837   5.979   2.700   2.422  0.2153  1.2990 -1.6514
 5880SOL    OH243838   4.117   4.532   2.130  0.8114  0.3652  0.2365
 5880SOL     H143839   4.055   4.472   2.172  1.0893  1.0224  1.6410
 5880SOL     H243840   4.130   4.601   2.195 -0.0049  2.2962 -1.6192
 5881SOL    OH243841   1.512   0.333   7.843  0.2173 -0.0486 -0.3933
 5881SOL     H143842   1.470   0.418   7.837  3.8892  1.8588 -0.1101
 5881SOL     H243843   1.516   0.315   7.937  2.2267  0.9419 -0.2736
 5882SOL    OH243844   7.659   1.979   7.830  0.5617 -0.5091  0.1472
 5882SOL     H143845   7.734   2.007   7.778 -0.2309  0.0197 -0.7407
 5882SOL     H243846   7.590   2.042   7.807 -0.1273 -0.9550  0.9824
 5883SOL    OH243847   7.036   1.261   6.993 -0.1987  0.0294  0.2454
 5883SOL     H143848   6.944   1.274   6.968 -0.3222  1.5105  1.3752
 5883SOL     H243849   7.085   1.275   6.913 -0.8292  1.1572  0.0537
 5884SOL    OH243850   3.066   6.894   0.237  0.4381  0.6238  0.0155
 5884SOL     H143851   3.063   6.799   0.248 -0.3745  0.5181 -1.0506
 5884SOL     H243852   3.003   6.912   0.167 -0.7947  2.1386  1.4668
 5885SOL    OH243853   2.110   0.291   7.140 -0.1048  0.4553 -0.4717
 5885SOL     H143854   2.106   0.257   7.229  0.3569 -0.2755 -0.7249
 5885SOL     H243855   2.039   0.245   7.093  1.4276 -1.2901 -1.1785
 5886SOL    OH243856   0.936   5.273   8.260 -0.0233 -0.5243  0.3994
 5886SOL     H143857   0.926   5.336   8.188  0.0487  0.8296  1.5662
 5886SOL     H243858   0.883   5.197   8.232  1.8519 -0.9718 -2.1384
 5887SOL    OH243859   0.184   6.806   6.524 -0.0726  0.5024 -0.5156
 5887SOL     H143860   0.237   6.885   6.525  1.9129 -0.8213  1.5478
 5887SOL     H243861   0.126   6.814   6.600 -0.3339  0.2509 -0.6840
 5888SOL    OH243862   1.702   6.475   7.464 -0.3834  0.0248  0.0593
 5888SOL     H143863   1.786   6.477   7.418 -0.0565  1.4710  0.6867
 5888SOL     H243864   1.638   6.453   7.397  0.2616  0.8148 -0.8272
 5889SOL    OH243865   1.518   1.518   8.279 -0.2361  0.6073 -0.3625
 5889SOL     H143866   1.486   1.428   8.280 -0.8669  0.8315  1.1515
 5889SOL     H243867   1.464   1.562   8.214 -1.0688  0.2822  0.0964
 5890SOL    OH243868   4.104   1.306   7.625  0.4309  0.4605 -0.0801
 5890SOL     H143869   4.142   1.369   7.563 -2.1209  0.6053 -1.5637
 5890SOL     H243870   4.058   1.243   7.570 -2.6974  1.1343  1.6680
 5891SOL    OH243871   4.753   1.740   1.467 -0.2264  0.1491  0.5280
 5891SOL     H143872   4.740   1.727   1.561  0.3031 -0.5985  0.5005
 5891SOL     H243873   4.817   1.674   1.442 -1.0266 -0.2323 -0.5462
 5892SOL    OH243874   6.843   1.309   1.786  0.1378 -0.3605 -0.3865
 5892SOL     H143875   6.905   1.381   1.776  1.1580 -0.8135  2.3694
 5892SOL     H243876   6.763   1.340   1.744  0.4250  2.5591  1.1308
 5893SOL    OH243877   1.796   5.671   7.346  0.6266  0.1059 -0.3135
 5893SOL     H143878   1.717   5.639   7.303 -0.5648  0.9516  1.1776
 5893SOL     H243879   1.830   5.596   7.395  0.1947 -0.0078 -0.1893
 5894SOL    OH243880   4.018   7.407   0.138 -0.1013 -0.5097  0.3464
 5894SOL     H143881   4.083   7.337   0.140 -0.4927 -0.8973 -0.3149
 5894SOL     H243882   4.046   7.463   0.066 -0.2304 -0.4131  0.3723
 5895SOL    OH243883   7.598   3.441   8.158 -0.2147 -0.1358  0.2844
 5895SOL     H143884   7.553   3.523   8.135  0.2093 -0.3348 -1.2952
 5895SOL     H243885   7.688   3.467   8.176 -0.5223  0.0055  1.6795
 5896SOL    OH243886   4.157   0.273   1.440  0.0800 -0.1113  0.2088
 5896SOL     H143887   4.181   0.358   1.402 -1.8829 -0.3026 -1.5332
 5896SOL     H243888   4.063   0.278   1.453  0.0245 -1.8364  0.5963
 5897SOL    OH243889   7.507   2.345   0.614  0.3605 -0.2453 -0.4212
 5897SOL     H143890   7.532   2.261   0.574  2.2120  0.1875 -0.2206
 5897SOL     H243891   7.445   2.384   0.551  0.1860 -1.3451 -0.9446
 5898SOL    OH243892   4.911   2.050   7.307 -1.5622  0.8087 -0.3708
 5898SOL     H143893   4.994   2.002   7.308 -1.0678  1.6768  0.2884
 5898SOL     H243894   4.912   2.103   7.386 -1.1557  3.5282 -2.1179
 5899SOL    OH243895   6.388   6.134   7.625  0.3816 -0.0982  0.5552
 5899SOL     H143896   6.294   6.122   7.612  0.2995 -0.2039  1.2089
 5899SOL     H243897   6.408   6.216   7.580 -0.1033  0.1298  0.7408
 5900SOL    OH243898   1.900   1.241   7.012  0.3737  0.2296 -0.2246
 5900SOL     H143899   1.854   1.317   6.975 -0.5130  0.3165  1.0124
 5900SOL     H243900   1.963   1.279   7.073 -0.1707 -0.0346  0.5047
 5901SOL    OH243901   4.562   5.337   7.357  0.1901 -0.6249  0.1217
 5901SOL     H143902   4.622   5.268   7.328 -0.4806 -1.3739  0.4932
 5901SOL     H243903   4.518   5.367   7.278  0.7694 -0.3444 -0.0964
 5902SOL    OH243904   1.298   7.697   1.329  0.0155 -0.7022  0.4309
 5902SOL     H143905   1.279   7.635   1.258  0.6457  0.6657 -0.9602
 5902SOL     H243906   1.263   7.655   1.407  0.3621 -2.7840 -0.5028
 5903SOL    OH243907   7.148   6.679   1.469  0.1967  0.6040  0.2564
 5903SOL     H143908   7.097   6.722   1.401 -0.3433  0.5002  0.5933
 5903SOL     H243909   7.166   6.592   1.436 -0.8888  0.2256  0.6527
 5904SOL    OH243910   7.434   3.816   0.464 -0.0333  0.1688  0.1069
 5904SOL     H143911   7.353   3.827   0.414 -1.1587 -0.6484  1.6890
 5904SOL     H243912   7.434   3.890   0.525  0.9531  0.7599 -0.6119
 5905SOL    OH243913   1.809   2.656   6.353  0.2934  0.4887 -0.3150
 5905SOL     H143914   1.811   2.726   6.419  0.2229  0.3965 -0.2159
 5905SOL     H243915   1.849   2.581   6.396  1.1231  0.7055 -0.6976
 5906SOL    OH243916   6.569   1.390   2.676  0.5679  0.2080 -0.4927
 5906SOL     H143917   6.654   1.367   2.638 -0.0534 -1.1960 -1.0517
 5906SOL     H243918   6.557   1.329   2.748 -0.4733 -0.3571 -1.1293
 5907SOL    OH243919   0.789   0.772   6.798  0.2310  0.2763 -0.0961
 5907SOL     H143920   0.860   0.837   6.806 -1.4819  2.2822 -0.9189
 5907SOL     H243921   0.741   0.780   6.880  0.6266 -0.7140  0.2372
 5908SOL    OH243922   0.653   6.202   7.600  0.1115  0.3731 -0.8693
 5908SOL     H143923   0.684   6.287   7.632 -1.9901  1.2831 -1.2182
 5908SOL     H243924   0.725   6.171   7.544  2.2937  0.4043  1.7929
 5909SOL    OH243925   5.969   5.369   1.482 -0.5623  1.2746 -0.2364
 5909SOL     H143926   5.929   5.428   1.418 -0.5565  1.1427 -0.3623
 5909SOL     H243927   6.062   5.392   1.481 -0.1644 -0.3381 -2.0174
 5910SOL    OH243928   4.568   2.540   0.900 -0.2907 -0.3349 -1.0698
 5910SOL     H143929   4.624   2.539   0.822  0.7367  0.7497 -0.3716
 5910SOL     H243930   4.567   2.632   0.927 -0.0139 -0.8175  0.6300
 5911SOL    OH243931   5.683   6.049   0.949 -0.1798 -0.3112 -0.1176
 5911SOL     H143932   5.591   6.023   0.948 -0.7946  1.6496 -2.7522
 5911SOL     H243933   5.716   6.020   0.864  1.8458 -1.5992  1.0876
 5912SOL    OH243934   7.344   4.925   7.764  0.4372  0.3151 -0.0568
 5912SOL     H143935   7.342   4.909   7.669  1.7939  0.3265 -0.0913
 5912SOL     H243936   7.291   5.004   7.776  0.5512  0.5174 -0.8435
 5913SOL    OH243937   2.580   4.702   7.533 -0.7351 -0.3655  0.2983
 5913SOL     H143938   2.570   4.628   7.594 -1.9001  1.1412  2.0164
 5913SOL     H243939   2.562   4.665   7.447 -1.4514 -2.0578  1.1526
 5914SOL    OH243940   1.313   6.320   1.374  0.2165 -0.6739  0.2850
 5914SOL     H143941   1.318   6.269   1.293  0.7105 -0.4020  0.1401
 5914SOL     H243942   1.220   6.336   1.387  0.2118  0.5490 -1.0395
 5915SOL    OH243943   2.436   4.180   0.999 -0.0422 -0.0640  0.2782
 5915SOL     H143944   2.425   4.274   0.991  2.2237  0.1734 -0.4248
 5915SOL     H243945   2.411   4.160   1.089  0.9009  1.4385  0.8823
 5916SOL    OH243946   6.047   2.552   2.669 -0.2312  0.3392 -0.0342
 5916SOL     H143947   5.993   2.482   2.632 -1.4232 -0.6101  3.2745
 5916SOL     H243948   6.117   2.506   2.716 -0.4365  1.3910  1.3325
 5917SOL    OH243949   6.216   0.751   1.589  0.2495  0.2118  0.4594
 5917SOL     H143950   6.204   0.837   1.549  0.4645 -0.6265 -1.4897
 5917SOL     H243951   6.279   0.707   1.532  3.7599  0.3786  3.9888
 5918SOL    OH243952   3.602   3.081   1.479 -0.3642  0.1726  0.5653
 5918SOL     H143953   3.605   3.176   1.479 -0.7471  0.2355 -1.8678
 5918SOL     H243954   3.526   3.059   1.423  0.7390 -1.5275 -0.3315
 5919SOL    OH243955   5.070   5.857   7.602 -0.8173 -0.3850  0.1345
 5919SOL     H143956   4.992   5.840   7.655 -0.9279 -0.8460 -0.1768
 5919SOL     H243957   5.087   5.774   7.557 -1.0519  0.1540 -0.9753
 5920SOL    OH243958   1.578   5.924   1.130  0.1326  0.9756 -0.4244
 5920SOL     H143959   1.578   5.853   1.066 -0.5605  0.0355  0.6086
 5920SOL     H243960   1.665   5.964   1.122  0.4938  0.0687 -1.0515
 5921SOL    OH243961   4.291   3.348   1.715 -0.0042 -0.5373  0.1582
 5921SOL     H143962   4.285   3.443   1.716  0.9290 -0.4779  0.6299
 5921SOL     H243963   4.311   3.324   1.806  0.7604 -1.1070 -0.1532
 5922SOL    OH243964   2.859   5.757   8.080 -0.2505 -0.0595  0.1350
 5922SOL     H143965   2.950   5.784   8.067 -0.6389  0.9407 -0.6843
 5922SOL     H243966   2.837   5.786   8.168 -0.1623  0.8758 -0.1455
 5923SOL    OH243967   3.625   5.541   0.792 -0.6829 -0.6555 -0.1205
 5923SOL     H143968   3.713   5.560   0.759 -0.7615 -0.7790 -0.4074
 5923SOL     H243969   3.604   5.616   0.848 -0.4745 -0.5309 -0.2060
 5924SOL    OH243970   7.453   0.782   6.612 -0.1021 -0.0165  0.7442
 5924SOL     H143971   7.393   0.748   6.679 -0.2605 -1.6066 -0.1800
 5924SOL     H243972   7.540   0.760   6.645 -0.2330 -2.1140 -0.2430
 5925SOL    OH243973   6.344   1.544   1.938 -0.0305  0.6042  0.2709
 5925SOL     H143974   6.361   1.557   2.032  0.4498 -1.3111  0.4520
 5925SOL     H243975   6.431   1.542   1.898 -0.1838 -0.0818 -0.0244
 5926SOL    OH243976   4.275   7.261   8.080 -0.3124 -1.0287  0.5831
 5926SOL     H143977   4.299   7.243   8.171  0.4836  1.0731  0.7955
 5926SOL     H243978   4.278   7.356   8.072 -1.2669 -1.1393 -1.4096
 5927SOL    OH243979   5.917   4.773   0.952 -0.0482 -0.5826  0.0144
 5927SOL     H143980   5.885   4.710   0.887  1.1044 -1.0592 -0.1093
 5927SOL     H243981   5.971   4.834   0.902 -1.9350  1.1114 -0.0222
 5928SOL    OH243982   1.243   6.283   8.226  0.9142  0.4931 -0.3590
 5928SOL     H143983   1.260   6.225   8.152  0.5648 -1.7582  1.2777
 5928SOL     H243984   1.177   6.238   8.278 -0.2193  2.8995  0.3795
 5929SOL    OH243985   2.468   0.033   7.486 -0.2674  0.2232  0.3813
 5929SOL     H143986   2.498  -0.051   7.451  0.1849 -0.0828  1.4753
 5929SOL     H243987   2.467   0.092   7.411 -2.5962 -1.2813 -0.8179
 5930SOL    OH243988   2.465   7.949   0.997  0.2366 -0.3956 -0.1879
 5930SOL     H143989   2.406   7.954   0.922  1.7973  2.2879 -1.3372
 5930SOL     H243990   2.437   7.872   1.045 -1.6628 -1.4191 -2.8164
 5931SOL    OH243991   0.998   3.616   0.577  0.0623 -0.0738 -0.1987
 5931SOL     H143992   0.922   3.561   0.554 -0.6680  0.1786  1.4946
 5931SOL     H243993   1.069   3.553   0.588  0.0015 -0.3632 -1.3518
 5932SOL    OH243994   0.055   1.613   0.736  0.0172  0.0537 -0.9083
 5932SOL     H143995   0.118   1.584   0.669 -0.6843  1.6151 -2.2834
 5932SOL     H243996   0.109   1.639   0.810  0.7368 -3.7945  0.0610
 5933SOL    OH243997   5.472   2.544   1.028 -0.2518  0.4345  0.0986
 5933SOL     H143998   5.457   2.462   0.980 -1.1699  0.6177  0.0626
 5933SOL     H243999   5.566   2.559   1.022 -0.0471 -0.7312  0.2806
 5934SOL    OH244000   5.319   6.189   7.067  0.1445  0.0148 -0.2274
 5934SOL     H144001   5.268   6.233   7.134  0.5037 -0.4260  0.3496
 5934SOL     H244002   5.279   6.215   6.985 -0.3138  0.5517  0.1604
 5935SOL    OH244003   3.631   5.468   0.316 -0.5519  0.2654  0.0273
 5935SOL     H144004   3.544   5.503   0.333 -1.0274 -1.0964  0.4728
 5935SOL     H244005   3.650   5.493   0.225 -1.4372  0.4944 -0.0925
 5936SOL    OH244006   3.821   2.326   2.175 -0.3624 -0.1777  0.0195
 5936SOL     H144007   3.895   2.341   2.233 -0.1856 -0.2334 -0.1906
 5936SOL     H244008   3.821   2.231   2.160  1.8697  0.2517 -3.0647
 5937SOL    OH244009   3.774   5.473   1.807  0.0739 -0.5875 -0.6735
 5937SOL     H144010   3.744   5.502   1.721  0.1908 -0.6637 -0.7398
 5937SOL     H244011   3.870   5.475   1.801  0.0930  0.4467 -0.1977
 5938SOL    OH244012   3.063   5.672   1.175  0.0689  0.3142  0.1073
 5938SOL     H144013   3.016   5.623   1.108 -1.1681  1.5682  0.0410
 5938SOL     H244014   3.129   5.721   1.127  1.0150 -0.9093  0.1251
 5939SOL    OH244015   5.475   5.734   7.196 -0.3280 -0.2695 -0.4698
 5939SOL     H144016   5.567   5.705   7.195  0.3402  1.7945 -1.2096
 5939SOL     H244017   5.449   5.727   7.287  1.3117  1.3043  0.1570
 5940SOL    OH244018   3.143   4.523   1.253  0.4115  0.2241  0.5500
 5940SOL     H144019   3.069   4.583   1.263 -0.1737 -0.5698  1.0218
 5940SOL     H244020   3.120   4.448   1.307  1.2578 -0.3206  0.1573
 5941SOL    OH244021   7.477   3.947   7.989 -0.4926  0.5674 -0.1325
 5941SOL     H144022   7.520   3.983   7.912  0.7737 -0.3991  0.1030
 5941SOL     H244023   7.431   4.021   8.028 -0.5007  1.2264 -1.3817
 5942SOL    OH244024   5.837   6.897   1.063 -0.3758  0.3759 -0.6554
 5942SOL     H144025   5.891   6.908   1.141 -0.4843  0.7866 -0.6362
 5942SOL     H244026   5.816   6.987   1.036 -0.5974  0.2289 -0.9738
 5943SOL    OH244027   3.529   6.877   1.434  0.4543  0.2563 -0.1777
 5943SOL     H144028   3.599   6.817   1.409  0.7230 -0.5856  2.4450
 5943SOL     H244029   3.507   6.924   1.353  0.7595 -2.8305 -2.1111
 5944SOL    OH244030   5.128   0.878   2.506  0.2514 -0.0810  0.6010
 5944SOL     H144031   5.040   0.843   2.521 -0.6695  1.6921 -0.4460
 5944SOL     H244032   5.176   0.807   2.464 -1.5975 -0.0855 -1.5660
 5945SOL    OH244033   2.029   6.905   1.407 -0.1008  0.2153 -0.0417
 5945SOL     H144034   2.067   6.861   1.331  0.9812  1.2728 -0.1211
 5945SOL     H244035   1.972   6.972   1.369 -1.0169 -0.4797  0.0829
 5946SOL    OH244036   6.899   3.859   2.208  0.4407 -0.3358  0.3070
 5946SOL     H144037   6.816   3.849   2.160  0.4752 -0.3482  0.2500
 5946SOL     H244038   6.915   3.954   2.207 -0.3360 -0.1714  1.6148
 5947SOL    OH244039   7.018   6.151   1.041  0.2147 -0.4171 -0.0546
 5947SOL     H144040   7.069   6.219   1.085 -0.3798 -0.6598  1.0356
 5947SOL     H244041   7.064   6.069   1.063 -0.0907 -0.5398  0.1317
 5948SOL    OH244042   3.521   2.971   6.741  0.6015  0.1908 -0.0198
 5948SOL     H144043   3.480   3.053   6.767  2.1266  0.8233  0.3741
 5948SOL     H244044   3.537   2.981   6.647  0.9659  0.4163  0.0674
 5949SOL    OH244045   0.876   7.497   1.054  0.9644 -0.1238 -0.1933
 5949SOL     H144046   0.940   7.567   1.050  0.3413  0.3931 -1.1146
 5949SOL     H244047   0.890   7.457   1.140  1.9235  0.5400 -0.0350
 5950SOL    OH244048   0.232   4.741   7.860  0.3716  0.4825  0.4297
 5950SOL     H144049   0.160   4.730   7.922  0.8861  0.6712  1.0756
 5950SOL     H244050   0.190   4.768   7.779 -0.3729 -0.5093  0.4839
 5951SOL    OH244051   7.623   7.290   7.992 -0.3076  0.1573 -0.1067
 5951SOL     H144052   7.633   7.282   7.897  0.4411  0.8015 -0.0758
 5951SOL     H244053   7.654   7.206   8.026  0.4142  0.3265 -0.3523
 5952SOL    OH244054   2.786   1.830   0.330  0.5278 -0.1112 -0.0484
 5952SOL     H144055   2.770   1.762   0.395  0.9274  0.6240  0.8311
 5952SOL     H244056   2.702   1.842   0.285  0.4222 -1.0820 -0.1235
 5953SOL    OH244057   5.467   5.131   2.363  0.1766  0.1541  0.0543
 5953SOL     H144058   5.452   5.058   2.302  1.2795  0.1929 -0.2753
 5953SOL     H244059   5.414   5.202   2.329 -2.2516 -1.0068  1.3343
 5954SOL    OH244060   5.251   7.764   1.240  0.0121  0.5710 -0.2596
 5954SOL     H144061   5.312   7.806   1.180  0.2932  0.9237  0.2687
 5954SOL     H244062   5.211   7.836   1.288  1.0881  0.2150  1.2125
 5955SOL    OH244063   7.424   3.887   0.172  0.6583  0.2057 -0.1398
 5955SOL     H144064   7.358   3.956   0.178  0.9149  0.7170 -2.5852
 5955SOL     H244065   7.498   3.929   0.129  1.1604 -1.3488 -0.8230
 5956SOL    OH244066   2.131   4.441   1.201  0.4119  0.0670  0.0570
 5956SOL     H144067   2.202   4.409   1.257  0.9210 -0.0712 -0.6615
 5956SOL     H244068   2.148   4.535   1.193 -1.4562  0.6906  2.7071
 5957SOL    OH244069   4.450   3.077   8.137 -0.7424 -0.2536 -0.2172
 5957SOL     H144070   4.447   2.985   8.111 -0.5568 -0.3560  0.1129
 5957SOL     H244071   4.474   3.124   8.057  0.9696 -0.6774  0.0329
 5958SOL    OH244072   4.733   2.276   1.289 -0.1827  0.3213 -0.2405
 5958SOL     H144073   4.797   2.215   1.251 -0.0733 -0.5486  1.2784
 5958SOL     H244074   4.786   2.344   1.330 -0.1944 -0.3628  0.9583
 5959SOL    OH244075   2.136   5.852   0.136 -0.0180  0.3867  0.4788
 5959SOL     H144076   2.226   5.881   0.153  0.0847 -0.0507  0.6989
 5959SOL     H244077   2.131   5.845   0.041  0.6522 -1.0417  0.5321
 5960SOL    OH244078   4.274   1.295   6.635 -0.1721  0.0349 -0.2633
 5960SOL     H144079   4.274   1.337   6.549 -0.6057 -0.7437 -0.6483
 5960SOL     H244080   4.187   1.257   6.643 -0.1232  0.0879  0.5156
 5961SOL    OH244081   5.120   2.546   7.797  0.2531 -0.0223 -0.3680
 5961SOL     H144082   5.127   2.636   7.764 -1.0718  0.3208  0.2632
 5961SOL     H244083   5.133   2.491   7.720 -0.8329  0.7449 -1.1175
 5962SOL    OH244084   3.907   5.903   0.793  0.2023 -1.0284  0.1644
 5962SOL     H144085   3.885   5.995   0.778  2.9755 -0.5272 -1.0208
 5962SOL     H244086   3.853   5.855   0.730 -0.6680 -0.1592  0.2355
 5963SOL    OH244087   4.394   6.943   1.750  0.3068 -0.8695  0.4197
 5963SOL     H144088   4.413   7.031   1.782  2.3726 -1.1950  0.1435
 5963SOL     H244089   4.331   6.908   1.813 -1.0903  1.0329  0.1518
 5964SOL    OH244090   5.733   6.237   1.374  0.3060 -0.2284  1.2044
 5964SOL     H144091   5.735   6.158   1.429  0.9035 -2.4464 -1.8530
 5964SOL     H244092   5.825   6.254   1.354  0.1748  1.2786  1.8868
 5965SOL    OH244093   3.207   2.543   6.693 -0.5744 -0.4924 -0.3316
 5965SOL     H144094   3.293   2.556   6.653 -0.0722 -0.0943  0.8260
 5965SOL     H244095   3.202   2.448   6.709  1.4233 -0.1017  3.3046
 5966SOL    OH244096   2.912   6.444   1.255 -0.1038 -0.3314  0.0487
 5966SOL     H144097   2.855   6.374   1.224 -1.1646 -0.1323  1.4787
 5966SOL     H244098   2.989   6.399   1.288 -0.1720 -0.7214 -0.3156
 5967SOL    OH244099   0.304   1.105   6.576 -0.2224 -0.3076  0.4460
 5967SOL     H144100   0.384   1.088   6.625  0.1820 -0.4179 -0.2425
 5967SOL     H244101   0.279   1.194   6.600 -0.4940 -0.6604  1.4925
 5968SOL    OH244102   3.262   6.103   6.889  0.3892  0.0319  0.0345
 5968SOL     H144103   3.349   6.117   6.926  0.9176  2.0717 -1.8504
 5968SOL     H244104   3.201   6.121   6.960  1.4635  0.4763  0.8391
 5969SOL    OH244105   0.477   0.243   1.199  0.3894  0.3628  0.5109
 5969SOL     H144106   0.477   0.251   1.294 -1.3037  0.1675  0.5504
 5969SOL     H244107   0.481   0.333   1.166  0.2345  0.4656  0.7764
 5970SOL    OH244108   3.753   7.152   6.717  0.2363 -0.0909 -0.1093
 5970SOL     H144109   3.678   7.101   6.686  0.1751 -0.0015 -0.1092
 5970SOL     H244110   3.717   7.238   6.737  0.4305  0.0992 -0.5730
 5971SOL    OH244111   0.397   6.680   1.527 -0.0096 -0.2435 -0.1601
 5971SOL     H144112   0.378   6.656   1.437  0.8283 -0.0509 -0.3862
 5971SOL     H244113   0.458   6.613   1.558 -2.4918 -1.9979  1.1863
 5972SOL    OH244114   6.351   2.724   2.551  0.0302 -0.2100 -0.1855
 5972SOL     H144115   6.433   2.682   2.577  0.0825 -1.9081 -2.9290
 5972SOL     H244116   6.289   2.652   2.540 -0.9542  0.7725 -1.1909
 5973SOL    OH244117   1.323   1.012   0.659 -0.0039  0.1194  0.2574
 5973SOL     H144118   1.321   0.917   0.675  2.0624  0.1264  0.6982
 5973SOL     H244119   1.298   1.051   0.743  0.2838 -0.0198  0.4088
 5974SOL    OH244120   7.308   0.334   6.909  0.6515  0.2189 -0.1610
 5974SOL     H144121   7.293   0.239   6.903  2.7526 -0.0594 -1.3771
 5974SOL     H244122   7.316   0.362   6.818 -0.5987  1.6911  0.1735
 5975SOL    OH244123   2.846   2.929   1.643 -0.0532  0.1305 -0.0376
 5975SOL     H144124   2.811   2.929   1.555  0.2319 -1.2119 -0.1607
 5975SOL     H244125   2.799   2.859   1.688  2.3385 -1.6108 -0.1738
 5976SOL    OH244126   5.187   5.572   0.784 -0.0105  0.0543 -0.6655
 5976SOL     H144127   5.242   5.649   0.796 -0.1512  0.2045 -0.9584
 5976SOL     H244128   5.099   5.601   0.809 -0.1149  0.0725 -1.0385
 5977SOL    OH244129   2.545   6.563   2.500 -0.0876  0.6259 -0.4173
 5977SOL     H144130   2.620   6.613   2.531 -1.2798  0.3552  3.1744
 5977SOL     H244131   2.472   6.625   2.501 -0.4214  0.2522 -1.4093
 5978SOL    OH244132   2.840   5.698   1.696 -0.5289  0.5320  0.0428
 5978SOL     H144133   2.890   5.774   1.667  0.1254  0.7010  1.5960
 5978SOL     H244134   2.886   5.623   1.659 -0.4751  0.8062 -0.4586
 5979SOL    OH244135   2.600   3.123   0.854  0.2439  0.4047 -0.0359
 5979SOL     H144136   2.644   3.051   0.809 -0.2442  0.8186 -1.2063
 5979SOL     H244137   2.574   3.182   0.784  0.9509  1.9058  0.9359
 5980SOL    OH244138   2.820   4.514   6.905 -0.1837 -0.6010  0.2334
 5980SOL     H144139   2.824   4.422   6.879 -0.7645 -0.2180 -1.3014
 5980SOL     H244140   2.897   4.554   6.864 -0.0100 -0.3676  0.7771
 5981SOL    OH244141   3.091   6.381   0.043  0.2868 -0.4185 -0.2120
 5981SOL     H144142   2.998   6.396   0.029  0.8746  1.8322 -1.9920
 5981SOL     H244143   3.134   6.415  -0.036  2.6135 -1.3505  0.5949
 5982SOL    OH244144   7.761   6.858   6.426 -0.4787 -0.2126  0.4312
 5982SOL     H144145   7.759   6.953   6.431 -1.6277 -0.2736  1.4293
 5982SOL     H244146   7.819   6.832   6.498  0.0688 -0.2592 -0.0235
 5983SOL    OH244147   1.873   0.255   2.565 -0.2867 -0.2946 -0.1117
 5983SOL     H144148   1.818   0.328   2.537  0.4073  0.4288  0.3736
 5983SOL     H244149   1.924   0.290   2.638  1.5589 -0.6148 -1.1972
 5984SOL    OH244150   5.482   4.956   2.155 -0.0597 -0.4878 -0.0726
 5984SOL     H144151   5.497   4.862   2.168  0.0743 -0.4053  0.3985
 5984SOL     H244152   5.425   4.961   2.078  0.7379 -0.9112 -0.7053
 5985SOL    OH244153   6.702   4.753   2.099 -0.1273  0.3139  0.3647
 5985SOL     H144154   6.755   4.769   2.021 -0.2691 -2.0864 -0.2603
 5985SOL     H244155   6.620   4.717   2.065 -0.2579 -0.5826  1.5818
 5986SOL    OH244156   7.877   2.479   6.580 -0.1765 -0.2873  0.1555
 5986SOL     H144157   7.856   2.540   6.650 -0.1901  0.6538 -0.6461
 5986SOL     H244158   7.829   2.399   6.601  0.6754 -0.3961  1.7823
 5987SOL    OH244159   0.044   6.203   1.723 -0.0379 -0.0890 -0.3253
 5987SOL     H144160   0.058   6.161   1.638 -0.8609  1.3658 -1.2080
 5987SOL     H244161   0.079   6.291   1.712 -1.9648  0.7570  0.1907
 5988SOL    OH244162   3.398   2.760   8.071  0.2648 -0.1157  1.1081
 5988SOL     H144163   3.339   2.807   8.130  0.1065  0.3138  0.6110
 5988SOL     H244164   3.482   2.805   8.081 -0.0151  0.6087  0.2424
 5989SOL    OH244165   6.107   0.449   7.402  0.1192 -0.3162 -0.4427
 5989SOL     H144166   6.074   0.412   7.320  1.2113  2.0449 -2.0212
 5989SOL     H244167   6.186   0.399   7.422  0.1078 -0.5899 -1.0765
 5990SOL    OH244168   3.277   6.833   1.499  0.1069 -0.0232  0.1433
 5990SOL     H144169   3.277   6.756   1.556  4.2745 -1.4276 -1.5613
 5990SOL     H244170   3.369   6.858   1.493 -0.7831  2.9033 -2.2533
 5991SOL    OH244171   4.486   4.511   2.409 -0.3079 -0.4579  0.3126
 5991SOL     H144172   4.569   4.467   2.392 -0.2109 -0.6135  1.1665
 5991SOL     H244173   4.487   4.530   2.503 -0.5914  0.8761  0.0578
 5992SOL    OH244174   4.123   2.135   1.682 -0.4647 -0.3216  0.1707
 5992SOL     H144175   4.217   2.124   1.698 -0.8156  0.5003  3.0094
 5992SOL     H244176   4.089   2.046   1.678  0.2604 -0.6028  0.1972
 5993SOL    OH244177   6.389   1.756   1.641  0.0123  0.2635 -0.5935
 5993SOL     H144178   6.335   1.692   1.595 -0.5955 -0.3627  0.9521
 5993SOL     H244179   6.463   1.706   1.675  0.5499  0.7471 -1.0499
 5994SOL    OH244180   6.299   5.788   6.830 -0.2175 -0.0153 -0.4722
 5994SOL     H144181   6.392   5.789   6.806  0.0868  0.6891  0.7120
 5994SOL     H244182   6.280   5.695   6.846  1.0548  0.1393  2.1864
 5995SOL    OH244183   6.155   3.676   1.863 -0.6275 -0.5439  0.9894
 5995SOL     H144184   6.176   3.672   1.770 -1.2173  2.1329  0.7098
 5995SOL     H244185   6.238   3.697   1.906 -0.0512 -3.1677  1.2584
 5996SOL    OH244186   2.511   6.371   6.972 -0.1050 -0.1064  0.0250
 5996SOL     H144187   2.538   6.461   6.953 -0.2186  0.1691  1.1530
 5996SOL     H244188   2.513   6.327   6.887  0.3887  0.8450 -0.4605
 5997SOL    OH244189   6.592   2.524   1.357  0.1924  0.5073  0.1816
 5997SOL     H144190   6.509   2.477   1.349  0.2256  0.6255 -1.0130
 5997SOL     H244191   6.652   2.475   1.301  0.9404  0.4097  1.0640
 5998SOL    OH244192   5.199   0.072   1.291  0.0100  0.0879 -0.1438
 5998SOL     H144193   5.173   0.160   1.265  0.0082  0.0209 -0.3704
 5998SOL     H244194   5.281   0.056   1.244 -0.6407 -0.5111 -1.0882
 5999SOL    OH244195   1.945   4.892   6.028  0.1034  0.2915 -0.6235
 5999SOL     H144196   1.860   4.848   6.029  0.1692  0.1540 -0.9252
 5999SOL     H244197   1.926   4.980   5.996  0.3815 -0.4021 -2.7800
 6000SOL    OH244198   4.431   4.489   1.371  0.6667 -0.6920 -0.3519
 6000SOL     H144199   4.522   4.506   1.347  0.5954 -0.7393 -0.6571
 6000SOL     H244200   4.379   4.535   1.306  0.4608  0.1873  0.4254
 6001SOL    OH244201   1.987   7.098   6.617 -0.1402 -0.1793  0.7795
 6001SOL     H144202   1.956   7.009   6.601  2.9375 -0.9345 -1.4382
 6001SOL     H244203   2.027   7.125   6.535  1.7928  2.0748  2.3823
 6002SOL    OH244204   2.408   0.226   6.069 -0.5769 -0.1883  0.2323
 6002SOL     H144205   2.383   0.210   6.160  1.5197  0.3217  0.9258
 6002SOL     H244206   2.504   0.226   6.070 -0.5295  0.0512 -1.9395
 6003SOL    OH244207   0.393   4.706   1.089 -0.0614 -0.0590 -0.2800
 6003SOL     H144208   0.329   4.771   1.059  0.4724  0.7110  0.2375
 6003SOL     H244209   0.391   4.638   1.022 -2.6418 -0.8621  0.5544
 6004SOL    OH244210   7.157   6.759   7.108 -0.6000  0.1305 -0.5420
 6004SOL     H144211   7.093   6.703   7.064  0.1288 -0.7504 -0.4819
 6004SOL     H244212   7.212   6.794   7.038 -0.6868  0.3138 -0.5204
 6005SOL    OH244213   7.091   5.413   1.291  0.1630  0.4435  0.6550
 6005SOL     H144214   7.059   5.437   1.205  2.3133  0.3431 -0.2082
 6005SOL     H244215   7.013   5.387   1.340 -1.3160  2.3659 -0.6256
 6006SOL    OH244216   5.910   6.874   1.324  0.0649  0.2286 -0.1848
 6006SOL     H144217   5.825   6.878   1.368  0.6031 -0.2900  0.9082
 6006SOL     H244218   5.974   6.880   1.395  0.9689  2.4433 -1.1394
 6007SOL    OH244219   1.283   4.965   1.901  0.2530  0.3246  0.1595
 6007SOL     H144220   1.310   4.936   1.988  0.3138  0.7852  0.2961
 6007SOL     H244221   1.189   4.982   1.910 -0.1449 -1.5246 -0.3825
 6008SOL    OH244222   0.687   5.032   1.497  0.3639  0.3459  0.2782
 6008SOL     H144223   0.602   4.989   1.501  0.3779  0.4393  1.6024
 6008SOL     H244224   0.746   4.966   1.462 -0.3534  0.4522 -1.1642
 6009SOL    OH244225   1.683   0.937   1.234 -0.4869  0.2074  0.4278
 6009SOL     H144226   1.632   0.877   1.289 -0.7528  1.0508  1.1082
 6009SOL     H244227   1.774   0.918   1.256 -0.5480 -0.3694  0.1951
 6010SOL    OH244228   5.251   3.509   1.083 -0.7114 -0.7489 -0.4306
 6010SOL     H144229   5.313   3.475   1.018 -0.3006 -1.6622  0.4275
 6010SOL     H244230   5.237   3.436   1.143  0.0881  0.5396  1.3692
 6011SOL    OH244231   0.418   0.679   1.547  0.3670 -0.2750 -0.2002
 6011SOL     H144232   0.481   0.639   1.488 -0.0470  0.0106 -0.8400
 6011SOL     H244233   0.419   0.772   1.525 -1.8474 -0.5694 -1.7276
 6012SOL    OH244234   5.321   4.771   7.067  0.3642 -0.1384  0.0178
 6012SOL     H144235   5.413   4.759   7.090  0.4018  1.1411  0.5173
 6012SOL     H244236   5.313   4.864   7.046 -0.8640 -0.2088  0.1677
 6013SOL    OH244237   1.181   4.868   6.685  0.2116 -0.0953  0.1914
 6013SOL     H144238   1.273   4.865   6.712  0.0300 -0.1016  0.8183
 6013SOL     H244239   1.138   4.804   6.741 -0.2918  0.3750  0.3436
 6014SOL    OH244240   2.394   5.882   7.040  0.2231  0.1014  0.4083
 6014SOL     H144241   2.481   5.848   7.061  0.0143 -0.8607 -0.2288
 6014SOL     H244242   2.402   5.977   7.050  1.5771  0.0945 -0.4723
 6015SOL    OH244243   7.227   0.974   0.908  0.0595 -0.6318  0.3356
 6015SOL     H144244   7.175   0.897   0.933  0.3762 -1.6425 -1.9640
 6015SOL     H244245   7.313   0.958   0.946 -0.2447 -0.7995  0.9572
 6016SOL    OH244246   1.338   1.457   1.041  0.0642  0.3039  0.2879
 6016SOL     H144247   1.399   1.451   1.115  1.6813  3.0724 -0.7325
 6016SOL     H244248   1.394   1.465   0.964 -1.6033 -1.1788 -1.1187
 6017SOL    OH244249   3.367   7.798   1.274 -0.3357  0.7650 -0.2159
 6017SOL     H144250   3.290   7.747   1.247 -0.0723  0.0408  0.3952
 6017SOL     H244251   3.426   7.794   1.199  0.5491 -1.5515  0.5468
 6018SOL    OH244252   5.175   3.562   7.957 -0.0692  0.0016 -0.1254
 6018SOL     H144253   5.161   3.491   8.019  2.0303  0.9868  1.5572
 6018SOL     H244254   5.107   3.627   7.979 -0.1288 -0.2046  0.2975
 6019SOL    OH244255   6.049   1.148   2.174 -0.4445  0.0470 -0.2892
 6019SOL     H144256   6.041   1.077   2.238 -0.3048 -0.1097 -0.4446
 6019SOL     H244257   5.992   1.217   2.208  0.0395  0.1713  0.2869
 6020SOL    OH244258   0.986   0.500   7.948 -0.3998 -0.5888  0.3204
 6020SOL     H144259   0.963   0.472   8.036 -1.6047  0.4887  0.3650
 6020SOL     H244260   0.993   0.595   7.954 -0.1028 -0.5422 -0.6582
 6021SOL    OH244261   1.651   6.747   1.807  0.5028  0.2508 -0.3373
 6021SOL     H144262   1.678   6.660   1.779  0.5539  0.1150  0.1264
 6021SOL     H244263   1.644   6.740   1.902 -1.0481  0.3152 -0.4347
 6022SOL    OH244264   5.500   4.828   7.961  0.1255  0.0948  0.3955
 6022SOL     H144265   5.533   4.739   7.947 -0.1225 -0.2102  1.6021
 6022SOL     H244266   5.551   4.861   8.035 -0.3889  0.6256  0.5217
 6023SOL    OH244267   0.299   1.548   1.671 -0.1923  0.0802  0.5433
 6023SOL     H144268   0.255   1.475   1.627 -0.3036  0.0991  0.6237
 6023SOL     H244269   0.292   1.621   1.609 -1.6106  0.5039  1.1976
 6024SOL    OH244270   2.702   4.838   2.381 -0.2994  0.8687  0.3182
 6024SOL     H144271   2.699   4.791   2.465 -2.2137  1.3619  0.5377
 6024SOL     H244272   2.790   4.876   2.379 -0.0303  0.3803  1.8391
 6025SOL    OH244273   1.989   5.530   0.632  0.4333  0.0636 -0.6281
 6025SOL     H144274   2.081   5.514   0.655  0.8153  1.8181 -0.8301
 6025SOL     H244275   1.983   5.625   0.623 -1.9227  0.1741  1.5659
 6026SOL    OH244276   1.926   6.148   0.970  0.0175  0.7108 -0.3568
 6026SOL     H144277   1.996   6.214   0.971  0.6253  0.0751 -0.0099
 6026SOL     H244278   1.848   6.194   1.000  0.0924  1.6429 -1.5450
 6027SOL    OH244279   6.277   1.718   7.003  0.7266 -0.5184  0.7076
 6027SOL     H144280   6.182   1.723   7.013  0.6739 -1.6018  0.7558
 6027SOL     H244281   6.291   1.711   6.909  0.8701  1.7366  0.5220
 6028SOL    OH244282   3.303   7.188   7.822  0.2277 -1.2821 -0.3169
 6028SOL     H144283   3.302   7.135   7.902  0.6862 -1.7788 -0.6360
 6028SOL     H244284   3.393   7.182   7.790  0.6771  0.9565  0.4685
 6029SOL    OH244285   3.057   2.852   7.142 -0.2701  0.1144 -0.3857
 6029SOL     H144286   3.113   2.905   7.085  0.4904  0.7965  0.9609
 6029SOL     H244287   2.982   2.909   7.161 -0.2726  0.0816 -0.2986
 6030SOL    OH244288   6.345   5.185   8.190  0.3235  0.0929  0.2554
 6030SOL     H144289   6.321   5.186   8.283  1.0264  0.8229  0.4288
 6030SOL     H244290   6.303   5.106   8.156  1.8943 -1.4160  1.6940
 6031SOL    OH244291   2.788   2.975   1.372 -0.5107 -0.1322 -0.2494
 6031SOL     H144292   2.737   2.986   1.292 -1.4002  1.2097  0.4846
 6031SOL     H244293   2.876   2.950   1.342 -0.6827  0.9431 -1.6644
 6032SOL    OH244294   7.465   4.952   2.224 -0.2114  0.4362 -0.3537
 6032SOL     H144295   7.474   4.860   2.250  0.9333  0.4848 -0.5564
 6032SOL     H244296   7.392   4.985   2.276 -0.0345 -0.3375  0.3892
 6033SOL    OH244297   0.481   6.403   6.842  0.1185  0.7158 -0.7255
 6033SOL     H144298   0.452   6.470   6.903 -0.1073  1.3989 -1.5668
 6033SOL     H244299   0.490   6.324   6.895 -2.0800  0.7827 -0.2320
 6034SOL    OH244300   4.742   0.022   7.006  0.4758  0.1903  0.2658
 6034SOL     H144301   4.831   0.018   6.971  0.6085 -0.9161  0.6961
 6034SOL     H244302   4.741   0.102   7.059  0.6121  1.2526 -1.2947
 6035SOL    OH244303   4.569   4.755   7.299  0.2407  0.0705  0.1474
 6035SOL     H144304   4.515   4.692   7.347 -0.6439 -0.4805 -1.5436
 6035SOL     H244305   4.515   4.782   7.225  2.2624 -0.4486 -1.5703
 6036SOL    OH244306   5.274   7.430   1.033  0.4545  0.0968  0.8785
 6036SOL     H144307   5.297   7.358   0.975  0.0495  0.6318  0.0343
 6036SOL     H244308   5.322   7.505   0.999  0.0041  0.4744  1.0624
 6037SOL    OH244309   5.963   5.202   7.627  0.2271  0.1710 -0.2079
 6037SOL     H144310   6.024   5.233   7.560  0.2148 -0.1623 -0.3749
 6037SOL     H244311   6.011   5.210   7.709  0.8716 -1.0624 -0.4554
 6038SOL    OH244312   4.582   4.962   6.137  0.1089 -0.0854 -0.3570
 6038SOL     H144313   4.614   5.051   6.127  1.3828 -0.6048 -1.0183
 6038SOL     H244314   4.527   4.965   6.215  1.6814  0.8723  0.7469
 6039SOL    OH244315   6.205   4.229   6.600 -0.3215 -0.1230  0.1518
 6039SOL     H144316   6.214   4.150   6.545  1.7044 -0.8361  1.4328
 6039SOL     H244317   6.288   4.275   6.588 -0.9326  1.0908  0.5356
 6040SOL    OH244318   4.493   0.891   0.758  0.3010  0.1401 -0.6530
 6040SOL     H144319   4.496   0.885   0.853 -2.4642  0.6835 -0.4766
 6040SOL     H244320   4.418   0.837   0.733  0.6297  0.4897 -2.4822
 6041SOL    OH244321   1.785   6.146   1.470  0.3685  0.1913 -0.2707
 6041SOL     H144322   1.850   6.127   1.538 -2.0515 -0.5480  1.9105
 6041SOL     H244323   1.827   6.118   1.389  1.7827 -2.7720  1.3945
 6042SOL    OH244324   3.545   2.411   7.471  0.3011  0.6112 -0.3198
 6042SOL     H144325   3.469   2.469   7.460  1.3823  1.9297 -0.9866
 6042SOL     H244326   3.600   2.456   7.535  0.1020 -0.7899  0.8531
 6043SOL    OH244327   6.561   4.938   7.913  0.0726 -0.3164  0.7423
 6043SOL     H144328   6.588   5.015   7.962  2.2934 -0.0546 -0.8329
 6043SOL     H244329   6.591   4.864   7.966  2.5127 -0.0352 -0.2075
 6044SOL    OH244330   0.984   3.570   1.445 -0.2740 -0.1872 -0.0957
 6044SOL     H144331   0.948   3.489   1.409 -0.2374  0.0210 -0.6143
 6044SOL     H244332   1.079   3.555   1.448 -0.2846 -0.2361 -0.0072
 6045SOL    OH244333   7.641   7.473   2.156  0.1392  0.0356  0.0674
 6045SOL     H144334   7.616   7.498   2.245  0.2826 -0.2162  0.1779
 6045SOL     H244335   7.608   7.545   2.101  0.4104  0.3879  0.3640
 6046SOL    OH244336   5.714   5.902   6.869 -0.1166  0.6542 -0.0631
 6046SOL     H144337   5.787   5.955   6.902  0.9258 -1.0759  0.4272
 6046SOL     H244338   5.655   5.892   6.944  0.1179  0.3684  0.0809
 6047SOL    OH244339   4.280   0.746   1.706  0.1462  0.1221  0.1082
 6047SOL     H144340   4.319   0.674   1.657 -2.1753  0.2244 -2.0074
 6047SOL     H244341   4.230   0.703   1.776  1.7695 -0.1228  1.1348
 6048SOL    OH244342   2.396   4.900   2.038  0.1604 -0.0604 -0.2971
 6048SOL     H144343   2.414   4.831   1.974  1.2321 -0.8099  0.7850
 6048SOL     H244344   2.311   4.935   2.012 -0.0330 -1.2514 -1.3346
 6049SOL    OH244345   3.469   5.491   0.570  0.1192  0.7760 -0.0577
 6049SOL     H144346   3.432   5.579   0.568  1.3466  1.3661  1.8152
 6049SOL     H244347   3.536   5.495   0.638  0.1199 -1.6484  0.1210
 6050SOL    OH244348   1.247   4.338   1.827 -0.2600  0.2594 -1.0568
 6050SOL     H144349   1.244   4.406   1.760  0.3392 -1.9284 -3.3710
 6050SOL     H244350   1.160   4.299   1.825 -1.0218  1.7196  1.1627
 6051SOL    OH244351   2.195   4.141   7.961  0.4684 -0.7731 -0.2413
 6051SOL     H144352   2.192   4.173   8.051 -2.2874 -2.3408  0.2781
 6051SOL     H244353   2.105   4.149   7.930  1.8879  2.8201 -4.0060
 6052SOL    OH244354   0.080   4.029   8.121  0.3018 -0.0411 -0.3127
 6052SOL     H144355   0.144   3.962   8.098 -0.4316 -0.2402 -1.8275
 6052SOL     H244356   0.098   4.048   8.213  2.4378 -0.2005 -0.6645
 6053SOL    OH244357   2.532   0.521   7.475 -0.4392 -0.0768 -0.6222
 6053SOL     H144358   2.511   0.596   7.530 -0.6740 -0.4078 -0.2606
 6053SOL     H244359   2.602   0.475   7.521 -0.6430 -0.3593 -0.5903
 6054SOL    OH244360   2.821   6.098   1.736  0.5749  0.2724 -0.6186
 6054SOL     H144361   2.852   6.183   1.705  0.6731  0.0601 -1.0988
 6054SOL     H244362   2.843   6.037   1.666  3.1331 -0.6602  0.9098
 6055SOL    OH244363   0.001   7.344   8.156 -0.5037  0.0212  0.1480
 6055SOL     H144364   0.053   7.422   8.176  0.8592 -0.3535 -1.8280
 6055SOL     H244365   0.059   7.270   8.177 -0.8067 -0.4222 -0.5573
 6056SOL    OH244366   7.565   3.139   1.478  0.2071 -0.0192 -0.5409
 6056SOL     H144367   7.660   3.147   1.466  0.2700  1.2658  0.6345
 6056SOL     H244368   7.550   3.045   1.488  1.5387 -0.1470  0.5286
 6057SOL    OH244369   4.458   2.037   0.393  0.1319 -0.2868 -0.2595
 6057SOL     H144370   4.403   2.066   0.320 -0.0132 -2.2968 -0.9782
 6057SOL     H244371   4.489   1.950   0.367  0.8825 -0.6157  1.6487
 6058SOL    OH244372   4.638   6.456   6.488  0.0907 -0.6587  0.0557
 6058SOL     H144373   4.550   6.448   6.524  0.3657 -0.3465  0.8018
 6058SOL     H244374   4.694   6.473   6.563  0.6392  0.2329 -0.5393
 6059SOL    OH244375   6.177   6.133   6.043 -0.3555  0.5371  0.3061
 6059SOL     H144376   6.240   6.112   6.111  0.4642  0.4221 -0.4691
 6059SOL     H244377   6.092   6.128   6.086  0.0326 -1.2500  0.9012
 6060SOL    OH244378   6.162   2.141   1.074 -0.4580  0.0384  0.2947
 6060SOL     H144379   6.198   2.097   0.996  1.0461  1.3442  0.2215
 6060SOL     H244380   6.096   2.200   1.040  0.9630  1.4149 -0.1377
 6061SOL    OH244381   5.120   2.872   0.822 -0.0386 -0.1384  0.8505
 6061SOL     H144382   5.093   2.895   0.733  1.6609  2.8240  1.0171
 6061SOL     H244383   5.198   2.817   0.810 -1.0087 -1.4691  0.5142
 6062SOL    OH244384   1.668   2.260   0.671 -0.0673 -0.1332 -0.3353
 6062SOL     H144385   1.609   2.217   0.733  0.2361 -1.6259 -1.0376
 6062SOL     H244386   1.678   2.349   0.704 -0.7219 -0.6056  1.1778
 6063SOL    OH244387   0.203   0.351   0.647  0.4501 -0.2843 -0.7130
 6063SOL     H144388   0.290   0.384   0.627  0.1804  0.1190 -1.2409
 6063SOL     H244389   0.196   0.269   0.597  0.2372  0.0864 -1.2950
 6064SOL    OH244390   4.494   4.258   7.937  0.2629  0.2820  0.2266
 6064SOL     H144391   4.551   4.181   7.937 -0.8992 -0.5810  0.1755
 6064SOL     H244392   4.540   4.321   7.881  1.2769 -0.3180  0.3683
 6065SOL    OH244393   5.628   0.010   7.646  0.5873 -0.4841  0.1673
 6065SOL     H144394   5.551   0.044   7.691  0.8776  0.1222  0.2039
 6065SOL     H244395   5.692  -0.006   7.715  0.5706 -0.8005  0.1133
 6066SOL    OH244396   0.978   4.831   7.511  0.4393 -0.4546  0.0640
 6066SOL     H144397   0.883   4.832   7.511  0.3890  0.0540  3.0124
 6066SOL     H244398   1.002   4.767   7.578  2.0704  2.6810  2.6575
 6067SOL    OH244399   6.779   1.685   1.783 -0.1753  0.1831  0.2203
 6067SOL     H144400   6.796   1.729   1.700  0.5385 -1.8520 -0.7609
 6067SOL     H244401   6.812   1.745   1.850  0.6768  1.1578 -1.0591
 6068SOL    OH244402   7.794   1.018   7.365  0.0529 -0.0069 -0.1167
 6068SOL     H144403   7.706   1.014   7.403 -0.1648  2.4617 -0.2496
 6068SOL     H244404   7.832   1.098   7.402  1.7366 -0.3216 -1.1216
 6069SOL    OH244405   6.981   7.768   1.173 -0.0272  0.2426 -0.0878
 6069SOL     H144406   7.035   7.846   1.159  1.5910 -0.8724 -0.1743
 6069SOL     H244407   7.041   7.704   1.212 -0.9411 -1.4724 -1.4206
 6070SOL    OH244408   0.551   5.970   1.885  0.7853 -0.0211  0.0449
 6070SOL     H144409   0.481   5.985   1.821  0.6173 -1.4547 -0.1239
 6070SOL     H244410   0.631   5.966   1.833  1.1587  2.6302  0.3394
 6071SOL    OH244411   5.596   0.208   1.640 -0.6271 -0.5612 -0.2780
 6071SOL     H144412   5.540   0.154   1.585  0.0862 -0.6838 -0.8939
 6071SOL     H244413   5.613   0.286   1.587  0.9285 -1.1524 -0.6659
 6072SOL    OH244414   2.913   5.586   0.970 -0.0391  0.3934  0.7604
 6072SOL     H144415   2.914   5.525   0.896  0.0313  0.6466  0.5498
 6072SOL     H244416   2.831   5.633   0.961  0.2663  0.8726  0.4731
 6073SOL    OH244417   1.069   6.830   0.586 -0.3440 -0.6405 -0.6282
 6073SOL     H144418   1.087   6.924   0.586 -0.5998 -0.5894 -1.1109
 6073SOL     H244419   1.152   6.789   0.562 -0.6074 -0.4579 -1.8815
 6074SOL    OH244420   7.796   3.470   0.278  0.4582 -0.3067  0.4886
 6074SOL     H144421   7.749   3.546   0.311  3.4155  0.0805  4.0724
 6074SOL     H244422   7.746   3.395   0.309 -0.3754  0.1432  0.2280
 6075SOL    OH244423   3.108   4.547   7.923 -0.4315  0.3554  0.3014
 6075SOL     H144424   3.145   4.507   8.001  0.6204 -0.5501 -0.6471
 6075SOL     H244425   3.067   4.628   7.954  1.8499  1.0914  1.4474
 6076SOL    OH244426   4.731   1.466   0.882 -0.1373  0.1365 -0.4022
 6076SOL     H144427   4.724   1.428   0.970 -1.3126  0.9527 -0.1263
 6076SOL     H244428   4.641   1.492   0.861  0.1106 -0.2054 -1.9198
 6077SOL    OH244429   6.633   1.745   1.307 -0.5893 -0.0983 -0.8044
 6077SOL     H144430   6.611   1.676   1.371 -0.1005 -0.2543 -0.8010
 6077SOL     H244431   6.585   1.720   1.228 -0.8368 -0.1550 -0.6377
 6078SOL    OH244432   6.927   6.819   0.935 -0.0171  0.6235  0.2779
 6078SOL     H144433   7.010   6.862   0.953 -0.0506  0.6702  0.3202
 6078SOL     H244434   6.861   6.875   0.977  0.1806 -1.0072  2.8753
 6079SOL    OH244435   1.147   6.538   1.632  0.1708 -0.4852  0.1300
 6079SOL     H144436   1.112   6.604   1.692 -1.1583 -1.1570  0.1127
 6079SOL     H244437   1.122   6.568   1.545  1.7466  0.2774 -0.0734
 6080SOL    OH244438   5.473   6.312   7.779  0.6769 -0.4343  0.0764
 6080SOL     H144439   5.495   6.283   7.690  0.0500  0.5416 -0.4161
 6080SOL     H244440   5.517   6.250   7.837  1.7738 -0.5862 -0.9104
 6081SOL    OH244441   6.085   7.136   2.058 -0.0476  0.0280 -0.0051
 6081SOL     H144442   6.052   7.113   2.145 -5.0215  1.9683 -1.1851
 6081SOL     H244443   6.090   7.052   2.012 -0.5288 -0.6753  1.1786
 6082SOL    OH244444   0.610   2.556   6.536 -0.1009 -0.5937 -0.1491
 6082SOL     H144445   0.641   2.481   6.484 -0.7574 -0.6595 -0.4542
 6082SOL     H244446   0.685   2.582   6.588  1.1854  0.7021 -2.5563
 6083SOL    OH244447   3.638   6.861   0.990 -0.5612 -0.1694 -0.4282
 6083SOL     H144448   3.650   6.772   1.024  0.7786 -0.0081 -0.4429
 6083SOL     H244449   3.586   6.905   1.057  0.2801 -0.4613  0.4418
 6084SOL    OH244450   7.911   6.104   1.065 -0.0244  0.1992 -0.2585
 6084SOL     H144451   7.971   6.177   1.052  0.2280  0.0345 -0.0221
 6084SOL     H244452   7.838   6.142   1.115 -0.8869  0.7792 -1.9447
 6085SOL    OH244453   1.167   0.195   7.050 -0.0867 -0.2080 -0.2022
 6085SOL     H144454   1.252   0.162   7.020  0.4730 -0.2448  1.3568
 6085SOL     H244455   1.186   0.284   7.079 -1.2162  0.8849 -2.6528
 6086SOL    OH244456   0.650   3.878   7.111 -0.7301 -0.9842  0.3694
 6086SOL     H144457   0.722   3.864   7.049 -1.9118  1.1872 -1.6075
 6086SOL     H244458   0.661   3.810   7.177  2.8201 -1.0120 -0.1598
 6087SOL    OH244459   6.293   5.262   0.886  0.1115  0.2734 -0.0671
 6087SOL     H144460   6.243   5.237   0.808 -0.0483 -1.3616  0.5482
 6087SOL     H244461   6.252   5.215   0.958  0.9603  0.9012  0.8450
 6088SOL    OH244462   6.804   2.456   1.786 -0.6540 -0.1946 -0.1246
 6088SOL     H144463   6.772   2.403   1.713  1.7737 -2.4808  0.4356
 6088SOL     H244464   6.724   2.482   1.833 -2.0093 -1.5575 -1.6250
 6089SOL    OH244465   5.300   5.642   8.251  0.7912 -0.4756  0.3277
 6089SOL     H144466   5.379   5.607   8.211  1.3694  0.4210  0.6656
 6089SOL     H244467   5.261   5.568   8.297  0.7389 -1.2344 -0.9169
 6090SOL    OH244468   2.774   2.692   1.118 -0.4945  0.5271 -0.0615
 6090SOL     H144469   2.751   2.683   1.026  0.9805 -1.3611 -0.2881
 6090SOL     H244470   2.869   2.703   1.118 -0.4887  0.5367  1.2188
 6091SOL    OH244471   2.221   1.911   2.459 -0.6525 -0.0556 -0.2722
 6091SOL     H144472   2.297   1.946   2.413 -1.0272  0.4293 -0.5194
 6091SOL     H244473   2.258   1.864   2.534 -0.0489 -0.7351 -0.9935
 6092SOL    OH244474   0.838   1.758   1.205  0.1704 -0.0508 -0.0085
 6092SOL     H144475   0.745   1.747   1.183  0.4936  2.0651 -2.7068
 6092SOL     H244476   0.884   1.697   1.148  0.4513 -1.4708  1.6899
 6093SOL    OH244477   1.380   3.888   1.051  0.9380  0.0270 -0.3526
 6093SOL     H144478   1.356   3.941   1.127  1.3561  0.3094 -0.4148
 6093SOL     H244479   1.426   3.812   1.087  0.2504 -0.3446 -0.2562
 6094SOL    OH244480   6.728   7.445   7.576 -0.0813 -0.5255  0.1805
 6094SOL     H144481   6.812   7.483   7.548  0.8722 -1.8464  1.1568
 6094SOL     H244482   6.703   7.388   7.504  1.1424 -2.0561  0.9438
 6095SOL    OH244483   4.217   7.520   7.971 -0.3886  0.1593  0.1312
 6095SOL     H144484   4.161   7.553   7.901  0.2969 -0.6907 -0.8380
 6095SOL     H244485   4.300   7.566   7.959 -0.2511 -0.0319  0.3489
 6096SOL    OH244486   4.341   4.930   1.807 -0.3061 -0.0523  0.0496
 6096SOL     H144487   4.418   4.886   1.843 -0.6018 -0.8269 -0.2661
 6096SOL     H244488   4.282   4.941   1.882  0.6224  1.6597  0.5509
 6097SOL    OH244489   7.040   4.606   0.240  0.5278  0.2124  0.1892
 6097SOL     H144490   7.119   4.604   0.293  0.9486 -2.0409 -0.4852
 6097SOL     H244491   7.060   4.552   0.164 -1.2512  0.6038 -0.5934
 6098SOL    OH244492   5.457   1.669   8.152 -0.2888 -0.8249  0.1078
 6098SOL     H144493   5.552   1.679   8.149 -0.2940 -0.2127  1.6275
 6098SOL     H244494   5.442   1.575   8.142  0.4940 -0.9925  0.4841
 6099SOL    OH244495   2.467   1.686   7.629 -0.0475  0.3436  0.4005
 6099SOL     H144496   2.458   1.757   7.566  1.5322 -0.1751 -0.4328
 6099SOL     H244497   2.499   1.729   7.709 -3.9536  1.3091  1.5647
 6100SOL    OH244498   0.781   5.680   8.204 -0.3692  0.3986 -0.1296
 6100SOL     H144499   0.823   5.613   8.150 -2.4142 -1.6782  0.7526
 6100SOL     H244500   0.829   5.676   8.288 -0.4270  0.1172 -0.1100
 6101SOL    OH244501   0.981   6.023   6.149  0.4516  0.3322 -0.5420
 6101SOL     H144502   1.068   5.983   6.139 -0.2509 -0.9019 -2.0046
 6101SOL     H244503   0.957   6.050   6.060 -1.1415 -0.3929 -0.3561
 6102SOL    OH244504   0.238   7.429   7.366 -0.0064  0.1439  0.1267
 6102SOL     H144505   0.217   7.403   7.276 -2.6497 -0.5361  0.8862
 6102SOL     H244506   0.257   7.523   7.360 -0.5946  0.1989 -1.1014
 6103SOL    OH244507   7.898   6.296   6.148  0.5770  0.0565  0.5226
 6103SOL     H144508   7.832   6.227   6.142 -1.1302  1.6951  0.0315
 6103SOL     H244509   7.933   6.305   6.059 -0.8444  1.3619  0.0673
 6104SOL    OH244510   0.598   6.172   8.175  0.2060 -0.6062 -0.4555
 6104SOL     H144511   0.671   6.113   8.194  0.3906  0.0330  0.8509
 6104SOL     H244512   0.637   6.259   8.172 -0.5615 -0.2035  0.7202
 6105SOL    OH244513   3.479   2.435   6.270 -0.1812  0.3232 -0.0726
 6105SOL     H144514   3.465   2.521   6.230  0.5860  2.0412  3.1445
 6105SOL     H244515   3.405   2.424   6.330 -0.9759 -1.8833 -1.4284
 6106SOL    OH244516   1.646   6.340   0.593 -0.2016 -0.6741 -0.2708
 6106SOL     H144517   1.627   6.373   0.506  1.0528  1.6200  0.2851
 6106SOL     H244518   1.644   6.244   0.584  0.1865 -0.4611 -2.8576
 6107SOL    OH244519   7.271   4.132   0.985  0.2352 -0.0138 -0.5015
 6107SOL     H144520   7.179   4.106   0.974 -0.0634  0.2356  1.1923
 6107SOL     H244521   7.305   4.069   1.049  0.8448  0.7676 -0.0552
 6108SOL    OH244522   3.926   4.408   0.085  0.0224 -0.1646  0.1178
 6108SOL     H144523   3.926   4.360   0.003 -0.1707 -1.2281  0.7266
 6108SOL     H244524   3.965   4.493   0.064 -1.7921  0.2880 -1.4566
 6109SOL    OH244525   2.991   6.857   5.684 -0.2176 -0.6722  0.5498
 6109SOL     H144526   3.059   6.832   5.622 -0.9351 -1.8004  0.1937
 6109SOL     H244527   3.033   6.851   5.769  0.1569 -1.3275  0.3284
 6110SOL    OH244528   3.582   3.993   0.293  0.1751 -0.1965  0.1261
 6110SOL     H144529   3.548   3.940   0.221 -0.2090  1.4383 -0.9289
 6110SOL     H244530   3.549   3.950   0.372  0.7385 -2.1045 -0.6513
 6111SOL    OH244531   0.740   1.914   7.616  0.6124 -0.2185 -0.0128
 6111SOL     H144532   0.775   1.865   7.542 -1.8920 -1.3007 -0.5456
 6111SOL     H244533   0.656   1.871   7.635  0.5036  0.9969  2.4706
 6112SOL    OH244534   5.250   6.455   2.391  0.0875  0.0195  0.3078
 6112SOL     H144535   5.210   6.510   2.459 -0.5588  0.7567 -0.6529
 6112SOL     H244536   5.190   6.461   2.317  0.2832 -1.5674 -0.0039
 6113SOL    OH244537   1.103   0.374   6.190  0.5732  0.0696  0.2038
 6113SOL     H144538   1.068   0.304   6.135  1.7668 -1.8115  1.7673
 6113SOL     H244539   1.052   0.451   6.166 -0.2122 -1.1341 -2.1527
 6114SOL    OH244540   1.595   7.252   7.245 -0.2560  0.4536  0.3531
 6114SOL     H144541   1.574   7.229   7.335 -0.4301  0.0972  0.2230
 6114SOL     H244542   1.510   7.260   7.201 -0.1301 -1.6963 -0.3440
 6115SOL    OH244543   3.000   6.584   1.634 -0.0325  0.1453  0.1870
 6115SOL     H144544   2.912   6.578   1.670 -0.9966 -1.7754 -2.3893
 6115SOL     H244545   2.987   6.601   1.541  2.1272 -5.4409 -1.3324
 6116SOL    OH244546   0.300   6.302   0.773 -0.4022 -0.2087  0.0687
 6116SOL     H144547   0.313   6.280   0.681 -1.5229 -0.9686  0.0857
 6116SOL     H244548   0.324   6.395   0.778 -0.9996  0.0332 -1.1360
 6117SOL    OH244549   4.270   6.653   6.610  0.0385  0.4604  0.6998
 6117SOL     H144550   4.285   6.578   6.553 -0.8886  1.2118 -0.5592
 6117SOL     H244551   4.204   6.623   6.672 -2.0339  0.9131 -1.2147
 6118SOL    OH244552   1.176   7.676   2.007 -0.4881 -0.6032  0.4878
 6118SOL     H144553   1.242   7.609   2.024 -1.0086 -1.1061  0.5312
 6118SOL     H244554   1.227   7.754   1.984  0.0921 -1.7338 -2.3030
 6119SOL    OH244555   2.800   2.828   8.228 -0.2108 -0.3399  0.3524
 6119SOL     H144556   2.830   2.740   8.205  1.9231  0.0823  1.3217
 6119SOL     H244557   2.858   2.887   8.179 -0.6589  0.5077  0.8269
 6120SOL    OH244558   0.885   3.342   1.350 -0.5665  0.1669 -0.1079
 6120SOL     H144559   0.860   3.263   1.302 -0.6377  1.4987 -2.3528
 6120SOL     H244560   0.830   3.341   1.429  0.2330 -2.5623  0.4685
 6121SOL    OH244561   2.655   0.349   5.883 -0.4724  0.1649  0.8315
 6121SOL     H144562   2.636   0.260   5.912 -0.9031  0.2375  0.7689
 6121SOL     H244563   2.736   0.340   5.832 -0.2046 -0.0972  1.3078
 6122SOL    OH244564   7.260   0.929   2.423 -0.0338 -0.1089  0.0626
 6122SOL     H144565   7.242   0.843   2.385 -2.0290  0.6935 -0.8814
 6122SOL     H244566   7.184   0.982   2.399 -0.2608  1.0811  3.2104
 6123SOL    OH244567   4.334   4.586   0.160 -0.4197  0.1047  0.1257
 6123SOL     H144568   4.259   4.612   0.107 -0.4986 -1.2582 -0.4442
 6123SOL     H244569   4.374   4.514   0.112 -0.1240 -0.7403  1.6068
 6124SOL    OH244570   7.786   7.190   1.714  0.0398  0.2077 -0.1573
 6124SOL     H144571   7.784   7.108   1.665  0.4200 -0.0358  0.2241
 6124SOL     H244572   7.763   7.165   1.804  0.2776  0.4939 -0.0153
 6125SOL    OH244573   3.280   2.832   0.386 -0.0454 -0.3730 -0.3417
 6125SOL     H144574   3.339   2.866   0.452  0.1693 -0.7638 -0.3304
 6125SOL     H244575   3.198   2.814   0.433  0.3590 -1.3998 -0.0162
 6126SOL    OH244576   0.211   3.132   7.411  0.1515  0.1186  0.3312
 6126SOL     H144577   0.118   3.111   7.402 -0.0459  1.0208  0.2391
 6126SOL     H244578   0.219   3.164   7.501  0.3164  0.3586  0.2280
 6127SOL    OH244579   2.282   3.190   0.546  0.1196  0.0685 -0.8705
 6127SOL     H144580   2.293   3.138   0.626  1.2731 -1.1039 -1.7640
 6127SOL     H244581   2.262   3.125   0.478 -1.0165  1.0705 -1.5037
 6128SOL    OH244582   3.708   6.637   1.399  0.0740  0.0422  0.2414
 6128SOL     H144583   3.716   6.674   1.486  0.7741 -0.3533  0.3471
 6128SOL     H244584   3.662   6.554   1.412 -0.0344  0.0944  0.1996
 6129SOL    OH244585   2.718   5.662   7.840 -0.1683 -0.0201 -0.5011
 6129SOL     H144586   2.760   5.653   7.925 -0.4133  1.3580 -0.2219
 6129SOL     H244587   2.790   5.663   7.777  0.0333 -0.6182 -0.2868
 6130SOL    OH244588   6.269   4.533   3.111 -0.2350  0.3558 -0.0013
 6130SOL     H144589   6.203   4.594   3.143 -0.4348 -0.5091  1.2687
 6130SOL     H244590   6.243   4.448   3.147  0.5941 -0.3038 -0.9254
 6131SOL    OH244591   7.708   2.266   6.204  0.9672  0.1899  0.2405
 6131SOL     H144592   7.798   2.263   6.234  0.1284  2.1812  3.1578
 6131SOL     H244593   7.704   2.341   6.145  1.0713  0.4927  0.6192
 6132SOL    OH244594   3.219   6.581   6.847 -0.1229  0.4463  0.6172
 6132SOL     H144595   3.255   6.516   6.786 -2.0760 -1.2427  1.1932
 6132SOL     H244596   3.135   6.605   6.809  0.6910  2.8461  0.3022
 6133SOL    OH244597   1.714   5.929   0.110 -0.6216 -0.7706 -0.0974
 6133SOL     H144598   1.720   5.940   0.015 -1.7102 -1.1437 -0.2074
 6133SOL     H244599   1.756   6.008   0.145 -0.9034 -0.2602 -0.8835
 6134SOL    OH244600   7.622   3.185   8.132 -0.0522  0.6518  0.5584
 6134SOL     H144601   7.624   3.280   8.120  0.2441  0.5478 -0.2612
 6134SOL     H244602   7.669   3.170   8.214 -0.6312  1.2606  0.9968
 6135SOL    OH244603   4.433   1.407   7.518 -0.1558  0.1077 -1.0639
 6135SOL     H144604   4.519   1.384   7.482  0.7106  0.4824  0.6896
 6135SOL     H244605   4.442   1.391   7.612 -1.7784  0.8861 -0.7605
 6136SOL    OH244606   1.911   4.133   2.197  0.0275 -0.0939 -0.0953
 6136SOL     H144607   1.827   4.146   2.240  0.1885  1.2947 -0.1684
 6136SOL     H244608   1.975   4.134   2.268  0.0185 -0.7330 -0.0796
 6137SOL    OH244609   2.225   4.230   8.217  0.0905 -0.2302 -0.3193
 6137SOL     H144610   2.169   4.231   8.295  2.4840 -1.1837  1.4640
 6137SOL     H244611   2.277   4.310   8.225  0.7811 -0.6508 -0.5990
 6138SOL    OH244612   3.919   0.042   1.604 -0.2754 -0.2717 -0.2214
 6138SOL     H144613   3.911   0.136   1.588  0.2138 -0.1270  0.3487
 6138SOL     H244614   4.013   0.026   1.607 -0.3557 -0.7138  0.0277
 6139SOL    OH244615   3.507   4.632   0.604  0.3922  0.1431  0.6265
 6139SOL     H144616   3.443   4.638   0.675 -1.9669 -1.1275 -1.3097
 6139SOL     H244617   3.572   4.699   0.625 -2.2605  2.4056  2.0331
 6140SOL    OH244618   7.522   3.208   2.367  0.1059  0.2492 -0.0940
 6140SOL     H144619   7.453   3.156   2.326  0.2370  0.6932 -0.8750
 6140SOL     H244620   7.484   3.296   2.377  0.0674  0.1453  0.7550
 6141SOL    OH244621   2.478   1.798   1.628 -0.0602  0.4824  0.0470
 6141SOL     H144622   2.526   1.715   1.636  2.4357  1.6464 -2.2007
 6141SOL     H244623   2.397   1.775   1.583  1.1170 -0.6093 -1.5795
 6142SOL    OH244624   6.977   7.811   7.726  0.4622 -0.0272  0.8780
 6142SOL     H144625   7.065   7.793   7.758  0.4031 -2.8168 -0.3685
 6142SOL     H244626   6.974   7.906   7.717  3.6032  0.0711  0.2495
 6143SOL    OH244627   4.566   6.405   8.188  0.0099  0.3246 -0.3917
 6143SOL     H144628   4.573   6.423   8.095 -2.0888  1.3814 -0.3878
 6143SOL     H244629   4.641   6.449   8.227  1.2049 -0.5855 -1.6186
 6144SOL    OH244630   2.983   4.971   1.135  0.5286 -0.3387 -0.2952
 6144SOL     H144631   2.995   4.900   1.072  0.5869  0.2387 -0.9412
 6144SOL     H244632   2.964   4.926   1.217 -1.1556 -1.0792 -1.0494
 6145SOL    OH244633   5.504   2.624   7.829 -0.1143 -0.3159 -0.3707
 6145SOL     H144634   5.432   2.598   7.886 -0.6165  4.1415  1.1884
 6145SOL     H244635   5.493   2.718   7.817  3.5539 -0.0871 -2.8461
 6146SOL    OH244636   7.329   4.218   1.915 -0.0845  0.3868  0.4073
 6146SOL     H144637   7.292   4.282   1.854  0.2878 -0.3668 -0.6326
 6146SOL     H244638   7.407   4.184   1.870 -2.0421 -3.1435 -0.5449
 6147SOL    OH244639   2.215   6.471   0.262  0.1210  0.0994 -0.5607
 6147SOL     H144640   2.280   6.412   0.223  0.4638 -1.1795  1.8680
 6147SOL     H244641   2.137   6.459   0.208  0.7074 -1.3450 -1.1115
 6148SOL    OH244642   1.666   2.742   1.784  0.1351  0.3107 -0.3180
 6148SOL     H144643   1.657   2.834   1.762 -0.9218  0.3052  0.0809
 6148SOL     H244644   1.578   2.714   1.809  0.4944 -0.7428 -0.1975
 6149SOL    OH244645   7.451   7.772   7.381 -0.2125 -0.2220 -0.0560
 6149SOL     H144646   7.534   7.797   7.421  0.5102 -1.0187 -1.0312
 6149SOL     H244647   7.397   7.851   7.385  0.2930  0.0670  1.3171
 6150SOL    OH244648   2.510   6.195   0.583  0.0409 -0.3128 -0.8935
 6150SOL     H144649   2.555   6.274   0.612 -0.9407  0.0523 -0.3617
 6150SOL     H244650   2.522   6.195   0.488  1.3520 -0.3388 -0.7369
 6151SOL    OH244651   4.543   3.144   7.427  0.2130  0.5234  0.0915
 6151SOL     H144652   4.623   3.104   7.393  0.8022  1.2325  0.6057
 6151SOL     H244653   4.551   3.138   7.522 -0.5408  0.2280  0.1405
 6152SOL    OH244654   3.233   3.459   0.426  0.3859 -0.1849  0.6360
 6152SOL     H144655   3.143   3.427   0.439  0.8371 -0.6264  2.7684
 6152SOL     H244656   3.282   3.380   0.402  0.8827 -0.5815  2.8821
 6153SOL    OH244657   1.787   5.696   0.790 -0.2006 -0.2477  0.9914
 6153SOL     H144658   1.844   5.683   0.714  0.2835 -0.8512  1.4477
 6153SOL     H244659   1.750   5.783   0.778 -1.3090 -0.9113 -0.7290
 6154SOL    OH244660   3.722   3.074   0.488 -0.1204 -0.5363 -0.5142
 6154SOL     H144661   3.642   3.102   0.533 -0.4504  0.5294 -1.7135
 6154SOL     H244662   3.695   3.063   0.397  0.3248 -3.5781 -0.3112
 6155SOL    OH244663   1.808   6.397   2.593 -0.0915 -0.7634 -0.1665
 6155SOL     H144664   1.855   6.427   2.671  2.2306  1.9088 -2.4892
 6155SOL     H244665   1.856   6.319   2.566 -0.5067 -1.3198  0.6650
 6156SOL    OH244666   2.492   7.524   6.550  0.1333  0.1974 -0.4565
 6156SOL     H144667   2.414   7.479   6.585  1.2710 -1.3026  0.2338
 6156SOL     H244668   2.466   7.552   6.462 -1.8024  1.3946  0.4593
 6157SOL    OH244669   2.837   7.700   7.871 -0.1663  0.2430 -0.0337
 6157SOL     H144670   2.796   7.764   7.929 -0.1257 -0.2403  0.5382
 6157SOL     H244671   2.775   7.627   7.870  0.9701 -0.7619  1.3388
 6158SOL    OH244672   2.576   1.385   1.368  0.0858 -0.6325 -0.4730
 6158SOL     H144673   2.483   1.377   1.346  0.5818 -0.8641 -2.5648
 6158SOL     H244674   2.617   1.308   1.328  1.0434 -1.1301  1.3685
 6159SOL    OH244675   2.842   4.780   7.517  0.2407 -0.8188 -0.0447
 6159SOL     H144676   2.825   4.758   7.426  0.9089  0.9373 -0.6166
 6159SOL     H244677   2.762   4.756   7.563 -1.0278  0.5715 -1.4883
 6160SOL    OH244678   1.221   1.118   8.062  0.6609  0.2419  0.0315
 6160SOL     H144679   1.160   1.088   7.995 -0.8945  0.2347  1.4248
 6160SOL     H244680   1.306   1.083   8.034 -0.1703 -0.7858 -1.2745
 6161SOL    OH244681   5.420   0.648   7.280  0.2343  0.2283  0.0741
 6161SOL     H144682   5.416   0.553   7.292  1.8141  0.1874  0.4277
 6161SOL     H244683   5.471   0.660   7.200 -0.2458  0.7715 -0.1543
 6162SOL    OH244684   3.963   7.254   1.877  0.0783  0.8769 -0.3100
 6162SOL     H144685   3.883   7.292   1.915 -1.7007 -1.4961 -1.5894
 6162SOL     H244686   3.982   7.178   1.932  1.2596  1.2043 -0.2524
 6163SOL    OH244687   6.362   6.765   1.228  0.1833 -1.0053 -0.0815
 6163SOL     H144688   6.442   6.801   1.189 -0.1733  0.0360  0.1310
 6163SOL     H244689   6.302   6.840   1.232 -1.2688 -2.0594 -1.4777
 6164SOL    OH244690   1.501   3.424   2.610  0.2316  0.3646  0.6035
 6164SOL     H144691   1.470   3.373   2.685 -0.0170  1.2512  1.1075
 6164SOL     H244692   1.458   3.384   2.535 -1.3847  0.9723  1.1895
 6165SOL    OH244693   5.717   1.415   7.302  0.4102 -0.1157 -0.5027
 6165SOL     H144694   5.763   1.341   7.263  0.2556  0.1124 -1.1162
 6165SOL     H244695   5.641   1.429   7.247  0.5151  0.5917 -0.4823
 6166SOL    OH244696   6.566   3.279   7.303 -0.2827  0.2887 -0.3229
 6166SOL     H144697   6.539   3.333   7.377  1.2547  0.4667  0.1203
 6166SOL     H244698   6.661   3.273   7.310 -0.2864 -1.2480 -1.2154
 6167SOL    OH244699   0.636   3.122   1.746  0.3391  0.1666 -0.0365
 6167SOL     H144700   0.656   3.086   1.660 -0.9067  0.2141 -0.3487
 6167SOL     H244701   0.557   3.174   1.733 -0.2947 -0.4445  1.2965
 6168SOL    OH244702   5.951   3.258   6.990 -0.2049  0.2310 -0.4660
 6168SOL     H144703   5.984   3.282   6.903 -0.0628 -0.2421 -0.5443
 6168SOL     H244704   5.867   3.215   6.972 -1.2828  2.1735 -0.2151
 6169SOL    OH244705   5.170   0.120   6.256  0.1113  0.2257  0.2679
 6169SOL     H144706   5.236   0.089   6.194  0.2486  1.3664 -0.1681
 6169SOL     H244707   5.123   0.041   6.283  0.3993 -0.3445 -0.8821
 6170SOL    OH244708   3.969   7.942   7.059 -0.3532  0.0178 -0.4389
 6170SOL     H144709   3.943   7.851   7.051 -0.5509  0.1515 -1.2593
 6170SOL     H244710   3.953   7.963   7.151  2.0262 -1.5011  0.3843
 6171SOL    OH244711   3.544   1.645   1.877  0.3042 -0.0289 -0.7979
 6171SOL     H144712   3.483   1.664   1.948  0.5849 -0.7432 -0.3614
 6171SOL     H244713   3.628   1.681   1.906  0.7235 -1.4695 -0.1824
 6172SOL    OH244714   3.966   7.489   0.395 -0.5433 -0.3060  0.3274
 6172SOL     H144715   4.000   7.417   0.448  0.3882  0.4292  0.7406
 6172SOL     H244716   3.971   7.457   0.305  0.8963 -0.3526  0.4220
 6173SOL    OH244717   5.453   4.329   7.506 -0.6578  0.4423 -0.1165
 6173SOL     H144718   5.445   4.418   7.471 -0.8476  0.4666 -0.0112
 6173SOL     H244719   5.365   4.292   7.498 -0.7969  0.5891  0.7263
 6174SOL    OH244720   3.488   0.093   6.793  0.0140  0.3155  0.2492
 6174SOL     H144721   3.451   0.161   6.850 -0.5674  0.6439 -0.5167
 6174SOL     H244722   3.582   0.107   6.797  0.1681 -1.1327  3.0048
 6175SOL    OH244723   6.507   5.004   7.062 -0.5754  0.0033  0.3998
 6175SOL     H144724   6.561   5.081   7.082  1.8358 -0.9180 -2.1874
 6175SOL     H244725   6.422   5.040   7.040 -0.0721  1.7813  1.2436
 6176SOL    OH244726   2.124   4.949   6.651  0.2260  0.0637 -0.1490
 6176SOL     H144727   2.118   4.989   6.738 -0.5436  0.6901 -0.4878
 6176SOL     H244728   2.216   4.924   6.643  0.1846 -0.5449  1.0867
 6177SOL    OH244729   3.378   7.859   0.350 -0.0110 -0.3035  0.0083
 6177SOL     H144730   3.384   7.815   0.434 -0.3930 -2.3181 -0.9784
 6177SOL     H244731   3.451   7.922   0.350  0.1817 -0.5089  1.6906
 6178SOL    OH244732   6.578   3.662   0.201 -0.1018 -0.1375 -0.9511
 6178SOL     H144733   6.574   3.756   0.184  1.4449 -0.0016 -0.6308
 6178SOL     H244734   6.491   3.629   0.176 -0.9333  1.4910 -0.2823
 6179SOL    OH244735   0.325   7.674   6.181  0.4340 -0.1354  0.8384
 6179SOL     H144736   0.329   7.690   6.275  0.5050 -0.9453  0.9781
 6179SOL     H244737   0.395   7.611   6.165  1.3437  1.0504  0.0163
 6180SOL    OH244738   2.432   5.035   0.454  0.2529 -0.1653 -0.0102
 6180SOL     H144739   2.486   4.956   0.456  0.7537  0.1852  0.6324
 6180SOL     H244740   2.391   5.035   0.368 -0.7641 -1.8109  0.4530
 6181SOL    OH244741   5.712   0.322   6.554  0.2504 -0.0182 -0.3939
 6181SOL     H144742   5.803   0.303   6.579 -0.2563 -1.3967  0.4910
 6181SOL     H244743   5.696   0.410   6.589  1.0151 -0.0743  0.1263
 6182SOL    OH244744   2.231   7.616   0.795 -0.0222  0.4342 -0.0078
 6182SOL     H144745   2.164   7.547   0.792  0.0947  0.3066  0.2450
 6182SOL     H244746   2.247   7.630   0.888 -2.4257  3.1364  0.0557
 6183SOL    OH244747   1.263   3.332   0.085 -0.3829 -0.3302 -0.5281
 6183SOL     H144748   1.189   3.318   0.143  0.5239 -0.6125  0.5746
 6183SOL     H244749   1.225   3.370   0.006 -1.8881 -1.9086 -0.5791
 6184SOL    OH244750   4.668   1.890   8.163  0.5785 -0.2000  0.3992
 6184SOL     H144751   4.676   1.985   8.160  0.8306 -0.1900  1.4412
 6184SOL     H244752   4.578   1.874   8.190  1.2738 -0.2356  2.7626
 6185SOL    OH244753   1.842   6.552   6.348  0.5017 -0.2502  0.3550
 6185SOL     H144754   1.920   6.529   6.398  0.5871  0.5940  0.6182
 6185SOL     H244755   1.775   6.568   6.415 -0.0880 -1.6195  0.1140
 6186SOL    OH244756   4.156   7.751   0.973 -0.0358  0.3987  0.4819
 6186SOL     H144757   4.152   7.845   0.954 -1.7513  0.4533  0.9881
 6186SOL     H244758   4.203   7.713   0.899  3.4550  2.0162  1.7523
 6187SOL    OH244759   5.893   5.376   2.051  0.5036 -0.2879 -0.4006
 6187SOL     H144760   5.983   5.389   2.021  0.7640  0.6715  0.7631
 6187SOL     H244761   5.901   5.311   2.122  0.0796 -1.3820 -1.3340
 6188SOL    OH244762   4.258   0.926   8.225  0.0064 -0.3206  0.5027
 6188SOL     H144763   4.284   0.836   8.242 -0.0095 -0.4207  0.0254
 6188SOL     H244764   4.165   0.930   8.246 -0.6898 -1.1618 -2.1721
 6189SOL    OH244765   4.735   3.569   0.276  0.2333 -0.2383  0.0082
 6189SOL     H144766   4.745   3.644   0.335 -0.2399  0.1970 -0.4652
 6189SOL     H244767   4.654   3.586   0.229  0.1599 -1.0153 -0.1568
 6190SOL    OH244768   4.126   7.022   8.272 -0.0216 -0.0260 -0.0205
 6190SOL     H144769   4.103   6.939   8.230  1.0909 -0.8016  0.8896
 6190SOL     H244770   4.044   7.070   8.275 -0.6866 -1.1018 -0.5289
 6191SOL    OH244771   7.911   5.639   0.856 -0.5152 -0.0583  0.0614
 6191SOL     H144772   7.887   5.731   0.856 -0.6874 -0.1008  0.5456
 6191SOL     H244773   7.832   5.592   0.830 -0.5490 -0.0981  0.2345
 6192SOL    OH244774   3.322   2.913   2.025  0.3579 -0.4701  0.4113
 6192SOL     H144775   3.360   2.979   1.968  1.1615  0.0100  1.4697
 6192SOL     H244776   3.292   2.844   1.966  3.6590 -1.2680 -0.4788
 6193SOL    OH244777   5.555   4.186   2.213 -0.2021  0.6593 -1.0672
 6193SOL     H144778   5.529   4.144   2.131  2.6408  0.9466 -2.1664
 6193SOL     H244779   5.600   4.118   2.262  1.5808  1.4888 -1.4860
 6194SOL    OH244780   2.015   5.500   1.182  0.2492 -0.5562 -0.3256
 6194SOL     H144781   2.067   5.485   1.261  1.6883 -0.4203 -1.2257
 6194SOL     H244782   2.073   5.475   1.110 -0.7597  0.0898 -1.3840
 6195SOL    OH244783   2.310   3.743   7.111 -0.0193  0.0948 -0.4381
 6195SOL     H144784   2.228   3.793   7.112  1.0180  1.8509 -0.1425
 6195SOL     H244785   2.345   3.754   7.200  0.8821 -0.0450 -0.7711
 6196SOL    OH244786   5.662   0.533   6.395  0.1743  0.3517 -0.0253
 6196SOL     H144787   5.667   0.551   6.301 -3.0754 -0.5730 -0.4490
 6196SOL     H244788   5.699   0.446   6.406 -3.2938 -1.3305 -1.1392
 6197SOL    OH244789   3.286   6.632   0.128 -0.5326  0.1253  0.0531
 6197SOL     H144790   3.234   6.675   0.060 -0.6983 -0.2173 -0.0363
 6197SOL     H244791   3.247   6.545   0.137 -0.3035  0.0520  0.3537
 6198SOL    OH244792   5.198   0.014   7.953 -0.0008 -0.2854  0.9304
 6198SOL     H144793   5.126  -0.031   7.908  1.6900 -1.1185 -1.0368
 6198SOL     H244794   5.167   0.104   7.964 -1.7986 -0.9150  1.1933
 6199SOL    OH244795   6.637   1.248   0.023  0.0943 -0.2328 -0.2287
 6199SOL     H144796   6.656   1.167   0.071  0.7270 -0.7454 -1.3343
 6199SOL     H244797   6.704   1.310   0.052 -0.5169 -0.0418  0.7765
 6200SOL    OH244798   0.641   5.455   7.177 -0.7052  0.3009  0.1085
 6200SOL     H144799   0.572   5.390   7.184 -1.0324  0.4927 -1.2430
 6200SOL     H244800   0.694   5.426   7.103  1.1647 -0.2934  1.6243
 6201SOL    OH244801   5.586   5.430   1.536 -0.1193 -0.0605 -0.1700
 6201SOL     H144802   5.513   5.376   1.505 -0.0918 -0.4314  0.3871
 6201SOL     H244803   5.578   5.512   1.489  0.1991 -0.7778 -1.4885
 6202SOL    OH244804   6.906   1.532   1.320  0.4295 -0.3847  0.9591
 6202SOL     H144805   6.937   1.485   1.244  1.8705  1.6346  0.2506
 6202SOL     H244806   6.826   1.486   1.346  0.4882 -1.7216 -1.1186
 6203SOL    OH244807   5.117   3.443   1.520  0.3467  0.0093  0.1933
 6203SOL     H144808   5.062   3.365   1.515  1.9968 -1.1146 -1.2454
 6203SOL     H244809   5.191   3.424   1.462 -0.1036  3.3645 -1.6192
 6204SOL    OH244810   5.078   0.214   0.040 -0.4585 -0.4304 -0.2558
 6204SOL     H144811   5.115   0.295   0.074 -3.2344  0.7508  0.0617
 6204SOL     H244812   5.030   0.241  -0.038  2.0605 -2.4387 -2.6151
 6205SOL    OH244813   3.428   5.315   1.766  0.3535  0.1571  0.4217
 6205SOL     H144814   3.375   5.313   1.845  0.4796  0.3786  0.5136
 6205SOL     H244815   3.491   5.244   1.777  0.0121 -0.1708  0.2665
 6206SOL    OH244816   7.895   0.254   1.704 -0.0630  0.4708 -0.1265
 6206SOL     H144817   7.962   0.317   1.677  0.4562  0.4009  0.9508
 6206SOL     H244818   7.934   0.168   1.688  0.8088  0.4107  2.0600
 6207SOL    OH244819   2.178   7.269   6.117  0.3402  0.5468  0.5488
 6207SOL     H144820   2.173   7.187   6.068 -0.8541  1.6331 -1.1718
 6207SOL     H244821   2.271   7.278   6.137  0.6102 -0.7755 -0.0154
 6208SOL    OH244822   5.854   4.820   1.456 -0.0789 -0.2780 -0.2306
 6208SOL     H144823   5.873   4.727   1.458  0.3064 -0.3106 -3.0047
 6208SOL     H244824   5.823   4.836   1.366  1.2556  2.5148 -0.2442
 6209SOL    OH244825   4.549   5.774   0.919  0.0958  0.2485 -0.8895
 6209SOL     H144826   4.573   5.729   0.838 -1.2165 -0.0529 -1.1305
 6209SOL     H244827   4.457   5.799   0.905  0.2045  1.1901  0.0583
 6210SOL    OH244828   6.106   2.482   1.336 -0.3936  0.2677  0.1454
 6210SOL     H144829   6.107   2.543   1.410 -0.9778  1.2851 -0.6738
 6210SOL     H244830   6.015   2.454   1.330 -0.9063  2.2695 -1.8619
 6211SOL    OH244831   4.981   7.383   1.112 -0.0378 -0.2867  0.0627
 6211SOL     H144832   4.934   7.314   1.066 -0.5777  0.3748 -0.3943
 6211SOL     H244833   5.057   7.402   1.057  1.4236 -2.1725  1.3902
 6212SOL    OH244834   1.503   4.165   6.718 -0.1304 -0.2649  0.1776
 6212SOL     H144835   1.481   4.144   6.627  1.0611 -1.2382  0.0984
 6212SOL     H244836   1.428   4.132   6.769 -0.5305 -0.2497 -0.4024
 6213SOL    OH244837   2.040   4.364   0.773 -0.2679  0.4905  0.0866
 6213SOL     H144838   2.114   4.303   0.763  1.0476  2.1304 -0.3241
 6213SOL     H244839   1.966   4.307   0.796  0.9590 -1.2554 -0.1353
 6214SOL    OH244840   1.302   2.748   7.711  0.1483 -0.2161  0.6652
 6214SOL     H144841   1.394   2.723   7.718 -0.0470 -1.0740  0.1294
 6214SOL     H244842   1.258   2.670   7.678 -0.7318  0.2791  0.6629
 6215SOL    OH244843   3.031   1.158   0.863 -0.2851 -0.2329  0.2083
 6215SOL     H144844   3.021   1.172   0.769  0.6406 -1.3707 -0.0780
 6215SOL     H244845   3.043   1.245   0.900  0.7075  0.1148 -0.9058
 6216SOL    OH244846   6.140   3.423   7.755 -0.2946  0.5857 -0.4282
 6216SOL     H144847   6.100   3.338   7.735  1.4355  0.0106 -1.5413
 6216SOL     H244848   6.221   3.401   7.802  0.8154  1.5371 -1.8386
 6217SOL    OH244849   1.393   6.650   0.847 -0.5717  0.0906  0.6337
 6217SOL     H144850   1.476   6.690   0.873 -1.2268  0.9312  1.4532
 6217SOL     H244851   1.341   6.647   0.927  0.1200 -4.1544  1.0167
 6218SOL    OH244852   0.138   1.571   6.794 -1.3548  0.0742 -0.4252
 6218SOL     H144853   0.190   1.652   6.788  0.5046 -0.8388  2.1627
 6218SOL     H244854   0.049   1.601   6.810 -0.5141  1.6585  1.5786
 6219SOL    OH244855   7.746   3.953   1.769  0.2760  0.4783 -0.4112
 6219SOL     H144856   7.666   4.006   1.769 -0.7488 -1.0651  0.0989
 6219SOL     H244857   7.771   3.949   1.676 -0.5056  0.5558 -0.6297
 6220SOL    OH244858   1.941   3.235   0.684 -0.0416 -0.6786  0.5436
 6220SOL     H144859   1.926   3.316   0.635  0.5292 -0.7262  0.2799
 6220SOL     H244860   1.904   3.166   0.629  0.4727 -0.7163  0.2373
 6221SOL    OH244861   4.346   5.361   6.898 -0.3976 -0.6560  0.5957
 6221SOL     H144862   4.274   5.314   6.858 -0.9758  0.8299 -0.1612
 6221SOL     H244863   4.370   5.428   6.833  2.2993 -1.7193  0.3979
 6222SOL    OH244864   2.331   1.644   6.712 -0.4768 -0.2735 -0.1848
 6222SOL     H144865   2.344   1.677   6.623 -0.1956  0.3119  0.0738
 6222SOL     H244866   2.239   1.620   6.715 -0.4372 -0.5231 -0.7077
 6223SOL    OH244867   7.458   2.066   1.459 -0.7977  0.0087 -0.3341
 6223SOL     H144868   7.368   2.034   1.466 -0.9175  0.7949  2.0289
 6223SOL     H244869   7.466   2.130   1.530  0.8777  1.7482 -2.0222
 6224SOL    OH244870   2.348   0.910   1.479  0.4574  0.1443 -0.0926
 6224SOL     H144871   2.342   0.949   1.566 -0.9986  0.4165 -0.2988
 6224SOL     H244872   2.358   0.816   1.496 -0.4710  0.1210  0.3723
 6225SOL    OH244873   4.243   5.777   6.835  0.5078 -0.5019 -0.5246
 6225SOL     H144874   4.217   5.706   6.776 -0.1812  0.7427 -1.7538
 6225SOL     H244875   4.193   5.760   6.916  0.6522 -1.6256 -0.6530
 6226SOL    OH244876   7.741   4.717   7.635  0.0801 -0.2222 -0.2465
 6226SOL     H144877   7.673   4.668   7.589 -0.3172 -0.3175  0.4434
 6226SOL     H244878   7.725   4.808   7.610 -1.5666 -0.0104  1.5220
 6227SOL    OH244879   7.919   2.152   1.268 -0.0600 -0.4736  0.2278
 6227SOL     H144880   7.901   2.142   1.362  0.0249  1.2758  0.4410
 6227SOL     H244881   7.857   2.217   1.238  0.0199 -0.9163 -0.9111
 6228SOL    OH244882   0.272   0.645   6.177  0.2740 -0.4166 -0.1028
 6228SOL     H144883   0.304   0.735   6.186  1.1577 -0.6623 -0.7794
 6228SOL     H244884   0.280   0.608   6.265 -1.5132  0.6294  0.5265
 6229SOL    OH244885   2.046   7.500   1.329 -0.0268  0.0919  0.0012
 6229SOL     H144886   1.966   7.475   1.376  0.4402 -1.0878  0.1596
 6229SOL     H244887   2.115   7.498   1.395  0.2289  0.6466 -0.2427
 6230SOL    OH244888   2.838   1.734   6.361  0.6663 -0.1813 -0.2298
 6230SOL     H144889   2.789   1.662   6.403  0.7882 -0.4997 -0.6296
 6230SOL     H244890   2.866   1.698   6.277  0.0915  0.5875 -0.7614
 6231SOL    OH244891   2.474   4.659   7.283  0.3727 -0.0896 -0.1200
 6231SOL     H144892   2.506   4.748   7.295 -0.8168  0.2666  0.3980
 6231SOL     H244893   2.381   4.668   7.265 -0.3606 -1.3735  2.7232
 6232SOL    OH244894   5.197   2.920   6.825  0.4710 -0.1416 -0.0980
 6232SOL     H144895   5.130   2.979   6.858 -0.8865 -1.3622 -0.5715
 6232SOL     H244896   5.220   2.955   6.739  1.7070  1.2529  0.7928
 6233SOL    OH244897   1.404   0.084   6.953  0.0723  0.5810 -0.1887
 6233SOL     H144898   1.435  -0.005   6.966 -0.8912  0.3265  0.3792
 6233SOL     H244899   1.458   0.137   7.013  2.4681  0.7650 -2.4467
 6234SOL    OH244900   1.159   4.567   0.191  1.1728 -0.1233 -0.2056
 6234SOL     H144901   1.120   4.606   0.113  1.6722 -1.7778 -1.3230
 6234SOL     H244902   1.087   4.559   0.253 -0.0929 -2.1955 -1.8688
 6235SOL    OH244903   5.391   5.262   0.664  0.4069  0.6594  0.3353
 6235SOL     H144904   5.313   5.214   0.690  1.3131 -1.3900 -0.6340
 6235SOL     H244905   5.369   5.301   0.579  0.9702 -1.3074 -0.7432
 6236SOL    OH244906   6.374   4.083   0.814 -0.0735  0.4758  0.5974
 6236SOL     H144907   6.305   4.075   0.748  0.6095  1.4710 -0.2400
 6236SOL     H244908   6.455   4.094   0.764  0.5367  0.5328  1.5862
 6237SOL    OH244909   6.429   3.180   7.097 -0.5100 -0.3947  0.4485
 6237SOL     H144910   6.341   3.173   7.134 -0.3490 -3.8280  0.3531
 6237SOL     H244911   6.480   3.226   7.165 -2.2162  1.1203  0.7243
 6238SOL    OH244912   0.830   3.502   0.893 -0.1500 -0.3498 -0.2497
 6238SOL     H144913   0.753   3.470   0.846 -0.3738  0.6278 -0.5497
 6238SOL     H244914   0.904   3.474   0.839 -0.3393 -0.4537 -0.4558
 6239SOL    OH244915   6.641   1.087   7.540 -0.4088 -0.6718  0.5777
 6239SOL     H144916   6.662   1.127   7.456 -1.4705 -1.7522 -0.2202
 6239SOL     H244917   6.724   1.087   7.588  0.0711  0.5131 -0.2220
 6240SOL    OH244918   2.000   0.937   8.134  0.8393  0.8616  0.0058
 6240SOL     H144919   2.002   1.014   8.078  1.1810  0.4744 -0.5095
 6240SOL     H244920   1.938   0.961   8.204 -0.8093  0.7564 -1.3772
 6241SOL    OH244921   3.180   7.604   6.794 -0.3133 -0.3254  0.2583
 6241SOL     H144922   3.103   7.575   6.747  0.1361  0.3530 -0.9332
 6241SOL     H244923   3.146   7.660   6.864 -0.9518 -0.8365  0.3554
 6242SOL    OH244924   2.388   1.216   1.055 -0.5240  0.6143  0.0170
 6242SOL     H144925   2.341   1.147   1.006  0.3570  0.0234 -0.0021
 6242SOL     H244926   2.365   1.200   1.146 -0.7778  0.6457 -0.0402
 6243SOL    OH244927   0.528   0.995   2.475  0.0895  0.3489  0.2918
 6243SOL     H144928   0.486   0.946   2.546  1.7318 -2.0344 -0.3104
 6243SOL     H244929   0.472   0.979   2.399 -0.6255  1.3243  0.6055
 6244SOL    OH244930   4.408   0.365   0.179  0.1318  0.1269  0.3718
 6244SOL     H144931   4.339   0.431   0.186 -0.0180 -0.2145  2.0687
 6244SOL     H244932   4.388   0.318   0.097  0.5232  2.4819 -1.1248
 6245SOL    OH244933   3.433   4.934   7.844  0.1916  0.0149 -0.9607
 6245SOL     H144934   3.427   5.019   7.889 -1.2278 -1.0275  0.9159
 6245SOL     H244935   3.526   4.920   7.832  0.4210  2.1932 -2.0176
 6246SOL    OH244936   1.759   5.107   2.553  0.0187 -0.0590 -0.1297
 6246SOL     H144937   1.825   5.092   2.620 -1.2302  2.2252  1.6762
 6246SOL     H244938   1.676   5.087   2.596 -0.8881  2.4384 -0.6279
 6247SOL    OH244939   3.435   0.181   0.025  0.0560 -0.2877  0.0991
 6247SOL     H144940   3.387   0.257  -0.008 -1.6460 -1.1821  0.4763
 6247SOL     H244941   3.368   0.125   0.064  1.6252 -0.7108  2.3117
 6248SOL    OH244942   6.470   2.368   7.828  0.2867 -0.1772  0.3615
 6248SOL     H144943   6.509   2.414   7.754  4.7119 -1.4793  1.7645
 6248SOL     H244944   6.481   2.275   7.806 -2.7657 -0.6315  0.5007
 6249SOL    OH244945   1.601   3.470   0.453  0.9050 -0.3416  0.0897
 6249SOL     H144946   1.645   3.385   0.444 -0.3004 -0.8449 -1.2869
 6249SOL     H244947   1.626   3.518   0.374  0.4167  0.0163  0.1497
 6250SOL    OH244948   4.981   5.275   1.057 -0.0408  0.1057  0.2471
 6250SOL     H144949   4.945   5.234   1.136 -1.4707 -0.3134 -0.6103
 6250SOL     H244950   4.911   5.269   0.992  0.6876  1.5170 -0.7089
 6251SOL    OH244951   5.084   5.642   6.485 -0.4059 -0.4249 -0.2782
 6251SOL     H144952   5.144   5.571   6.508  0.7070  0.7295  0.4698
 6251SOL     H244953   5.085   5.645   6.389 -0.1244 -1.1303 -0.3001
 6252SOL    OH244954   0.661   0.772   0.981 -0.0850 -0.1111 -0.4157
 6252SOL     H144955   0.606   0.823   0.921  1.1990 -0.5597 -2.0303
 6252SOL     H244956   0.733   0.830   1.004 -0.0625 -0.2683 -0.0893
 6253SOL    OH244957   2.089   0.090   6.806 -0.0671  0.2435 -0.1125
 6253SOL     H144958   2.010   0.082   6.752  0.2081  2.0518 -0.7989
 6253SOL     H244959   2.129   0.003   6.802 -2.0536 -0.7394  0.3177
 6254SOL    OH244960   1.642   1.208   1.190 -0.4591  0.4409 -0.5592
 6254SOL     H144961   1.556   1.234   1.225 -0.6073 -0.4365 -0.2571
 6254SOL     H244962   1.655   1.120   1.224 -0.2522 -0.1364 -2.1150
 6255SOL    OH244963   5.500   3.654   7.788  0.4426  0.5370 -0.6065
 6255SOL     H144964   5.587   3.648   7.827 -0.1471  0.7629  0.7600
 6255SOL     H244965   5.502   3.736   7.739  1.0854  0.3984 -0.8288
 6256SOL    OH244966   1.949   6.964   7.227  0.6894 -0.0481  0.0192
 6256SOL     H144967   1.968   6.875   7.255  1.9198  0.0001 -0.6283
 6256SOL     H244968   1.883   6.955   7.158  2.6631 -0.6640 -1.8394
 6257SOL    OH244969   0.677   7.919   7.286  0.4380 -0.2352  0.1532
 6257SOL     H144970   0.754   7.973   7.305  1.9262 -1.6342 -1.6702
 6257SOL     H244971   0.713   7.842   7.241 -1.8940 -1.5646  0.5209
 6258SOL    OH244972   6.995   4.076   2.540  0.1192 -0.2609  0.7542
 6258SOL     H144973   6.988   3.986   2.569  1.6889 -0.2979  1.0187
 6258SOL     H244974   7.081   4.105   2.569 -0.5324  1.4636  1.0541
 6259SOL    OH244975   0.721   1.463   1.498 -0.4795 -0.1383 -0.4136
 6259SOL     H144976   0.693   1.429   1.583  0.7681  0.4257  0.2294
 6259SOL     H244977   0.763   1.546   1.518  0.2332 -0.2179 -1.5324
 6260SOL    OH244978   5.668   7.378   5.915 -0.1478  0.0793  0.1918
 6260SOL     H144979   5.741   7.317   5.904 -1.1989 -0.7279 -2.5431
 6260SOL     H244980   5.601   7.327   5.960  0.1827  0.2290  0.8722
 6261SOL    OH244981   3.118   0.896   7.100  0.1875  0.0611 -0.0925
 6261SOL     H144982   3.175   0.955   7.149  3.0381 -2.3647 -0.3569
 6261SOL     H244983   3.110   0.818   7.156  0.2138 -1.1304 -1.7141
 6262SOL    OH244984   0.710   1.489   7.783  0.3575  0.2199 -0.8447
 6262SOL     H144985   0.655   1.535   7.720 -0.5677  2.8002  1.7250
 6262SOL     H244986   0.797   1.525   7.770 -0.1046  1.7977  0.2494
 6263SOL    OH244987   4.113   7.581   8.228 -0.3777 -0.6571 -0.0583
 6263SOL     H144988   4.128   7.564   8.135  2.5387  1.9668 -0.1550
 6263SOL     H244989   4.031   7.630   8.231  0.0744  0.1976 -1.3625
 6264SOL    OH244990   6.768   3.487   1.429 -0.5179  0.8349  0.3845
 6264SOL     H144991   6.683   3.514   1.464 -1.7878 -1.3097 -0.9031
 6264SOL     H244992   6.753   3.477   1.335  1.5331  1.7354 -0.0635
 6265SOL    OH244993   6.639   2.487   6.992  0.2386 -0.0309 -0.3866
 6265SOL     H144994   6.600   2.538   7.062  0.8502  0.7446 -0.6078
 6265SOL     H244995   6.597   2.401   6.999 -0.0302  0.1769  0.6380
 6266SOL    OH244996   0.378   7.468   6.725  0.1100  0.2209  0.4132
 6266SOL     H144997   0.459   7.519   6.722 -0.4177  1.0936  0.6031
 6266SOL     H244998   0.334   7.488   6.643 -0.0500 -0.0144  0.4420
 6267SOL    OH244999   5.980   2.650   0.465  0.5269  0.2309 -0.7622
 6267SOL     H145000   5.941   2.695   0.391  2.8681 -0.2201 -2.3453
 6267SOL     H245001   6.055   2.705   0.489 -1.5109  1.6081  2.8132
 6268SOL    OH245002   1.543   1.506   6.671 -0.3170 -0.3408  0.5890
 6268SOL     H145003   1.515   1.480   6.758  0.7832  0.4019  1.1729
 6268SOL     H245004   1.609   1.574   6.686  0.4869 -0.7952 -0.7972
 6269SOL    OH245005   3.864   6.887   7.635 -0.5403  0.1042  0.1608
 6269SOL     H145006   3.854   6.982   7.626 -1.5068 -0.1809 -2.1679
 6269SOL     H245007   3.820   6.865   7.717 -1.2477  1.5262  0.1692
 6270SOL    OH245008   3.535   3.965   7.887 -0.0663  0.1926 -0.0675
 6270SOL     H145009   3.525   4.061   7.885  0.1920  0.2038 -1.2956
 6270SOL     H245010   3.479   3.934   7.816  1.0379 -0.4454 -0.6789
 6271SOL    OH245011   6.768   2.970   1.017  0.6271  0.3885 -0.0718
 6271SOL     H145012   6.728   3.006   0.938  1.5009  0.5766 -0.4230
 6271SOL     H245013   6.734   2.880   1.023 -1.0641  1.0338  0.4660
 6272SOL    OH245014   6.225   7.969   6.884 -0.9157  0.0710 -0.0802
 6272SOL     H145015   6.192   8.025   6.814 -1.5170 -0.5276 -0.2794
 6272SOL     H245016   6.179   7.886   6.872  2.5987 -1.7076 -2.0095
 6273SOL    OH245017   1.849   7.272   6.820 -0.0165 -0.0770  0.1393
 6273SOL     H145018   1.780   7.214   6.854 -0.5385  0.4859  0.0396
 6273SOL     H245019   1.887   7.223   6.747 -1.2753  0.2201 -0.7265
 6274SOL    OH245020   2.321   1.611   8.211 -0.5629  0.5137  0.2474
 6274SOL     H145021   2.390   1.635   8.149 -0.7935  0.1350 -0.1641
 6274SOL     H245022   2.240   1.644   8.172 -1.1109 -2.2470 -1.1365
 6275SOL    OH245023   4.095   2.350   7.061 -0.4654  0.1299  0.0336
 6275SOL     H145024   4.159   2.404   7.014  1.5361 -0.5348  1.9239
 6275SOL     H245025   4.098   2.383   7.151 -1.4728 -1.0999  0.5218
 6276SOL    OH245026   7.055   5.459   7.914  0.0289  0.2835 -0.3575
 6276SOL     H145027   7.087   5.546   7.892 -4.6828  1.9566 -1.0844
 6276SOL     H245028   7.040   5.461   8.008  0.8995 -0.1524 -0.1984
 6277SOL    OH245029   1.290   3.291   2.485  0.1301  0.6558 -0.6244
 6277SOL     H145030   1.229   3.312   2.556  0.7819  0.8938 -0.1228
 6277SOL     H245031   1.302   3.197   2.491  1.3160  0.8601  0.5348
 6278SOL    OH245032   5.542   7.589   6.400  0.1672  0.5358  0.2021
 6278SOL     H145033   5.626   7.616   6.436 -0.3897  0.8074  1.3169
 6278SOL     H245034   5.484   7.584   6.476 -1.5530  3.0321 -0.8831
 6279SOL    OH245035   4.464   2.448   8.194  0.0155 -0.0481 -0.2982
 6279SOL     H145036   4.453   2.538   8.223  1.0401  0.4956 -1.5443
 6279SOL     H245037   4.412   2.442   8.113 -0.1253 -0.6012 -0.1687
 6280SOL    OH245038   4.007   1.358   6.834  0.3437 -0.3125  0.4444
 6280SOL     H145039   3.998   1.270   6.798 -0.2782 -0.7547  1.6428
 6280SOL     H245040   3.969   1.416   6.768 -1.4209 -1.1701  0.6822
 6281SOL    OH245041   2.216   4.945   7.116 -0.1672  0.2187  0.3960
 6281SOL     H145042   2.208   5.020   7.175  1.0916  1.2856 -0.7416
 6281SOL     H245043   2.309   4.922   7.119 -0.1588  0.0655 -0.9138
 6282SOL    OH245044   1.638   4.137   1.556  0.7699  0.2250  0.2282
 6282SOL     H145045   1.698   4.171   1.622  1.2459  0.3892 -0.2905
 6282SOL     H245046   1.557   4.187   1.569  0.7470  0.0174  0.9132
 6283SOL    OH245047   7.021   4.969   0.763  0.3422  0.0074 -0.4902
 6283SOL     H145048   6.989   4.918   0.688  1.5597 -1.1030 -0.2722
 6283SOL     H245049   7.070   5.041   0.723  0.2367 -0.0758 -0.7745
 6284SOL    OH245050   5.324   0.701   2.369 -0.4937  0.2624 -0.2382
 6284SOL     H145051   5.317   0.619   2.320 -0.0827  0.5305 -0.7501
 6284SOL     H245052   5.302   0.769   2.306 -2.0067  0.4695  0.4997
 6285SOL    OH245053   0.075   4.169   1.145 -0.2277  0.1021  0.2996
 6285SOL     H145054   0.060   4.263   1.151  0.8395  0.3577 -0.9253
 6285SOL     H245055   0.094   4.153   1.053  0.9397 -1.0981  0.7261
 6286SOL    OH245056   4.400   4.590   0.824 -0.0157  0.6329 -0.3984
 6286SOL     H145057   4.487   4.618   0.796  0.2740  2.6864  2.3927
 6286SOL     H245058   4.345   4.667   0.814 -0.7491  0.3108  1.0911
 6287SOL    OH245059   5.824   2.495   6.932  0.0710 -0.5211 -0.1409
 6287SOL     H145060   5.781   2.581   6.935  0.7503 -0.1576 -0.5671
 6287SOL     H245061   5.895   2.503   6.995 -0.9230 -1.3744  1.1147
 6288SOL    OH245062   0.487   1.144   0.421 -0.6439  0.1546 -0.6570
 6288SOL     H145063   0.472   1.125   0.513  0.7376  0.4312 -0.3669
 6288SOL     H245064   0.493   1.239   0.416  3.0561 -0.0032 -0.4031
 6289SOL    OH245065   1.533   7.026   0.778 -0.4390  0.2569  0.9159
 6289SOL     H145066   1.500   6.971   0.707  0.6373 -0.9393  1.3205
 6289SOL     H245067   1.458   7.081   0.802 -1.2941 -0.4540 -0.0432
 6290SOL    OH245068   5.747   4.312   2.553 -0.3858  0.3512  0.4106
 6290SOL     H145069   5.834   4.294   2.588  0.0372 -0.2812 -0.9348
 6290SOL     H245070   5.713   4.227   2.528 -0.8118  0.7463 -0.3777
 6291SOL    OH245071   5.979   3.587   0.670 -0.0734 -0.1011 -0.7158
 6291SOL     H145072   5.977   3.611   0.577  1.4458  3.1180  0.0131
 6291SOL     H245073   5.930   3.656   0.713  0.8976 -0.5162  1.0897
 6292SOL    OH245074   4.233   2.208   7.278  0.2776  0.2679 -0.3563
 6292SOL     H145075   4.198   2.296   7.265  0.2868  0.2082 -0.7838
 6292SOL     H245076   4.326   2.222   7.294  0.2425  0.3530 -0.2303
 6293SOL    OH245077   2.895   5.498   1.539  0.0373 -0.4319 -0.1395
 6293SOL     H145078   2.982   5.528   1.512  0.5873 -1.3927  0.5370
 6293SOL     H245079   2.841   5.509   1.460  0.7008  0.4070 -0.4872
 6294SOL    OH245080   0.228   6.537   2.146 -0.5955  0.2886  0.1541
 6294SOL     H145081   0.272   6.502   2.069 -2.0926 -1.6464  0.1551
 6294SOL     H245082   0.142   6.565   2.115 -1.1171 -0.2744  1.0501
 6295SOL    OH245083   0.293   0.495   0.032 -0.4526  0.7601  0.3696
 6295SOL     H145084   0.368   0.550   0.011  1.3038 -1.2719  1.0213
 6295SOL     H245085   0.287   0.433  -0.041 -1.1274  0.5385  0.6017
 6296SOL    OH245086   2.098   2.330   6.562  0.4843 -0.7691 -0.2685
 6296SOL     H145087   2.012   2.371   6.563  1.1924  0.8650  4.2579
 6296SOL     H245088   2.135   2.354   6.477 -3.3801 -1.4123 -2.2628
 6297SOL    OH245089   6.332   4.479   1.167  0.3014  0.2586 -0.2485
 6297SOL     H145090   6.288   4.539   1.107 -1.8726  0.4068  1.4381
 6297SOL     H245091   6.375   4.415   1.110 -2.1804  0.0451 -1.9566
 6298SOL    OH245092   1.631   3.623   1.452 -0.7330 -0.2853  0.4166
 6298SOL     H145093   1.652   3.715   1.465 -0.1177 -0.5254  1.1435
 6298SOL     H245094   1.581   3.598   1.530 -2.1590 -0.1941 -0.4463
 6299SOL    OH245095   7.041   2.288   1.479 -0.1477  0.2976 -0.3820
 6299SOL     H145096   7.070   2.353   1.543  0.3757 -1.2426  0.9851
 6299SOL     H245097   7.067   2.324   1.394  1.7148  1.0437  0.4888
 6300SOL    OH245098   0.901   2.628   0.358  0.9135 -0.3648 -0.1181
 6300SOL     H145099   0.853   2.554   0.396 -1.2361  0.5581 -0.9995
 6300SOL     H245100   0.834   2.685   0.321  2.5373  2.0500  0.5255
 6301SOL    OH245101   4.428   3.785   8.140 -0.0089  0.0736 -0.0441
 6301SOL     H145102   4.411   3.877   8.159 -1.6249 -0.1349 -0.3574
 6301SOL     H245103   4.486   3.787   8.064 -0.2521  0.8441 -0.2175
 6302SOL    OH245104   1.815   1.084   6.658  0.2062 -0.0333 -0.4446
 6302SOL     H145105   1.802   1.179   6.655 -0.9586 -0.1956 -0.8533
 6302SOL     H245106   1.746   1.052   6.716 -0.3361 -0.7770 -1.4824
 6303SOL    OH245107   6.688   0.146   0.049  0.3421 -0.0001 -0.4678
 6303SOL     H145108   6.724   0.058   0.060 -1.3126 -0.9771 -2.5706
 6303SOL     H245109   6.716   0.172  -0.039 -0.9389  0.7223 -0.6649
 6304SOL    OH245110   1.328   4.738   7.268  0.2830 -0.4257  0.3519
 6304SOL     H145111   1.259   4.695   7.318 -2.7830  0.6714 -2.7587
 6304SOL     H245112   1.333   4.826   7.306 -0.8518 -0.1379 -0.1540
 6305SOL    OH245113   6.304   6.533   7.635  0.5721 -0.7489  0.0826
 6305SOL     H145114   6.318   6.544   7.729  0.0385 -1.1567  0.2115
 6305SOL     H245115   6.210   6.518   7.626  0.0629  2.5156 -0.8097
 6306SOL    OH245116   3.131   6.026   0.289  0.4110 -0.4933 -0.2149
 6306SOL     H145117   3.192   6.009   0.360  0.3485  1.8524  0.4597
 6306SOL     H245118   3.179   6.083   0.229 -1.4944  2.5606  1.0274
 6307SOL    OH245119   7.348   3.691   0.015  0.3146 -0.1533 -0.0437
 6307SOL     H145120   7.257   3.701  -0.013 -0.0454 -1.2582  0.6871
 6307SOL     H245121   7.361   3.761   0.079 -0.9627 -1.7607  2.0789
 6308SOL    OH245122   7.696   3.452   6.391  0.3330  0.1746  0.1584
 6308SOL     H145123   7.762   3.448   6.461  0.1850  1.5957  0.3854
 6308SOL     H245124   7.695   3.363   6.355  1.5635 -0.1590  0.9008
 6309SOL    OH245125   4.321   1.594   6.703 -0.1314  0.4184  0.5220
 6309SOL     H145126   4.338   1.615   6.795  0.6326 -0.3182  0.5526
 6309SOL     H245127   4.393   1.537   6.678  1.0681  2.6488 -1.2619
 6310SOL    OH245128   4.130   1.341   1.415  0.4944 -0.0925 -0.4387
 6310SOL     H145129   4.138   1.398   1.339  2.7073  1.6350  1.0205
 6310SOL     H245130   4.050   1.370   1.459 -0.2949 -0.4973 -1.5945
 6311SOL    OH245131   2.992   7.957   0.757 -0.1084 -0.0085 -0.2668
 6311SOL     H145132   3.032   7.877   0.722 -0.9254  0.1628 -1.6411
 6311SOL     H245133   2.901   7.953   0.728 -1.3370 -0.7832  3.4761
 6312SOL    OH245134   7.746   1.597   6.515  0.4031 -0.3259  0.1465
 6312SOL     H145135   7.791   1.606   6.599  0.9594  0.7071 -0.2601
 6312SOL     H245136   7.763   1.679   6.469  0.1902 -0.9283 -1.0287
 6313SOL    OH245137   4.266   5.959   7.140 -0.2457 -0.2997  0.5417
 6313SOL     H145138   4.251   5.867   7.161 -0.3134  0.1657  2.6371
 6313SOL     H245139   4.285   6.000   7.224 -0.0627  1.5794 -0.3888
 6314SOL    OH245140   5.226   6.651   6.908 -0.0632 -0.5204  0.3296
 6314SOL     H145141   5.175   6.703   6.971  0.5966 -0.5162  0.8595
 6314SOL     H245142   5.229   6.705   6.829  2.1922  1.0851  1.4621
 6315SOL    OH245143   5.228   2.375   8.232 -0.1283  0.0939  0.3924
 6315SOL     H145144   5.134   2.394   8.237 -0.1630 -0.2215  1.1109
 6315SOL     H245145   5.251   2.349   8.321  0.2902 -1.4285 -0.1475
 6316SOL    OH245146   6.663   4.921   0.665  0.2525  0.7014 -0.2966
 6316SOL     H145147   6.724   4.863   0.711  0.4842 -0.4784 -2.0541
 6316SOL     H245148   6.697   5.009   0.679  0.3504  0.3608  1.7229
 6317SOL    OH245149   3.157   6.744   7.383 -0.4299  0.5966  0.1946
 6317SOL     H145150   3.213   6.771   7.311 -0.5990  0.9249  0.1794
 6317SOL     H245151   3.163   6.817   7.445 -0.3594  0.3570  0.4658
 6318SOL    OH245152   1.474   4.752   0.513 -0.0348 -0.3887  0.4371
 6318SOL     H145153   1.462   4.847   0.516  1.0022 -0.2646  1.7133
 6318SOL     H245154   1.387   4.716   0.528 -0.5512  0.3501 -0.7041
 6319SOL    OH245155   6.651   1.576   8.153  0.2978 -0.1022 -0.0002
 6319SOL     H145156   6.714   1.632   8.199  1.0786 -0.3486 -0.7665
 6319SOL     H245157   6.565   1.609   8.181  0.7491  1.0642  0.0419
 6320SOL    OH245158   2.904   5.645   7.632 -0.6335  0.2415 -0.2268
 6320SOL     H145159   2.993   5.619   7.656 -0.4919  1.3472  0.4768
 6320SOL     H245160   2.915   5.725   7.581 -1.1481 -0.3178 -1.2297
 6321SOL    OH245161   4.764   6.516   0.607 -0.1431  0.5684  0.2859
 6321SOL     H145162   4.760   6.444   0.670  0.8976 -0.9340 -1.3184
 6321SOL     H245163   4.852   6.552   0.616  0.5004 -0.5523 -1.2308
 6322SOL    OH245164   2.437   3.915   0.427  0.1837 -0.2564  0.1272
 6322SOL     H145165   2.365   3.907   0.364  2.3326 -0.0064 -2.4611
 6322SOL     H245166   2.471   3.825   0.435  0.1720 -0.2171  0.6529
 6323SOL    OH245167   5.765   6.515   1.438 -0.4811  0.2716  0.1360
 6323SOL     H145168   5.752   6.420   1.436  0.3140  0.1652 -0.2688
 6323SOL     H245169   5.852   6.526   1.477 -0.9816  0.8813  1.0869
 6324SOL    OH245170   2.782   4.909   7.164 -0.1829  0.2252 -0.3771
 6324SOL     H145171   2.696   4.894   7.125  0.6661 -0.7540 -1.9173
 6324SOL     H245172   2.818   4.822   7.179  0.5920  0.6289  0.1664
 6325SOL    OH245173   4.374   0.777   1.958  0.2034  0.0538  0.1817
 6325SOL     H145174   4.328   0.809   1.880  1.2737  1.8153  0.2474
 6325SOL     H245175   4.343   0.687   1.968 -2.1158  0.7124 -0.6214
 6326SOL    OH245176   2.258   3.002   0.347 -0.4692 -0.0834  0.0362
 6326SOL     H145177   2.311   2.922   0.352  0.4106  0.5059  0.2159
 6326SOL     H245178   2.224   3.002   0.258  0.3289 -0.1532 -0.2750
 6327SOL    OH245179   4.663   7.684   7.963 -0.2807  0.0425 -0.3548
 6327SOL     H145180   4.719   7.756   7.992 -0.0571 -0.5138  0.6301
 6327SOL     H245181   4.639   7.639   8.044 -3.5832  1.3025 -0.5736
 6328SOL    OH245182   4.442   5.618   8.065  0.0107  0.4606 -0.5931
 6328SOL     H145183   4.381   5.616   8.140  0.5912  0.8800 -0.1067
 6328SOL     H245184   4.528   5.600   8.103  0.4199  1.4225 -1.0395
 6329SOL    OH245185   3.064   2.711   0.142  0.3923  0.3853  0.0853
 6329SOL     H145186   3.134   2.768   0.175 -0.7668  2.8245 -1.5314
 6329SOL     H245187   2.983   2.758   0.164 -0.5912 -0.7081 -1.1623
 6330SOL    OH245188   6.199   3.946   8.043  0.5618  0.5723  0.1703
 6330SOL     H145189   6.206   3.918   7.952 -0.8173  0.1595  0.1721
 6330SOL     H245190   6.227   4.038   8.043  1.7076  0.2204 -0.4538
 6331SOL    OH245191   5.497   2.251   7.846  0.0353  0.6214 -0.0088
 6331SOL     H145192   5.487   2.327   7.789  1.1769 -0.7433 -2.0687
 6331SOL     H245193   5.480   2.176   7.790  1.6940 -0.7832  1.2958
 6332SOL    OH245194   7.176   7.538   0.319  0.2652  0.4168  0.3526
 6332SOL     H145195   7.219   7.494   0.245 -2.3826  0.2216 -1.1442
 6332SOL     H245196   7.143   7.620   0.282  0.5475  1.1782  1.7883
 6333SOL    OH245197   2.962   2.955   2.394  0.3165 -0.4529 -0.2681
 6333SOL     H145198   3.010   3.022   2.443 -0.8298 -0.5839  1.0679
 6333SOL     H245199   2.870   2.979   2.406 -0.1163 -2.3385  0.3413
 6334SOL    OH245200   4.165   4.613   7.209 -0.7535  0.1655 -0.2948
 6334SOL     H145201   4.103   4.607   7.281 -1.8588 -0.7002 -1.3003
 6334SOL     H245202   4.245   4.647   7.249 -1.5220  0.2270  1.2237
 6335SOL    OH245203   7.806   7.625   1.046 -0.5980  0.3003  0.1449
 6335SOL     H145204   7.877   7.689   1.048 -0.2847 -0.0801  1.1210
 6335SOL     H245205   7.845   7.544   1.077 -1.4519  0.0668  0.6319
 6336SOL    OH245206   7.913   0.884   6.785  0.3753 -0.5531 -0.2508
 6336SOL     H145207   7.938   0.971   6.753  0.8304 -0.5021  0.2436
 6336SOL     H245208   7.964   0.871   6.865 -0.0083 -1.1009 -0.0856
 6337SOL    OH245209   7.175   3.363   6.643 -0.0103 -0.4141 -0.5517
 6337SOL     H145210   7.186   3.268   6.652 -0.0563 -0.3239  0.4945
 6337SOL     H245211   7.081   3.377   6.655 -0.1788 -0.3584 -1.8881
 6338SOL    OH245212   7.546   5.230   0.701 -0.0121 -0.3193 -0.3110
 6338SOL     H145213   7.556   5.280   0.619  1.1742  0.5469  0.3488
 6338SOL     H245214   7.459   5.253   0.733 -0.4679 -0.6250 -1.2960
 6339SOL    OH245215   5.844   5.798   7.462 -0.3657  0.1148  0.1259
 6339SOL     H145216   5.862   5.787   7.555  1.9484 -0.1631 -0.3225
 6339SOL     H245217   5.876   5.718   7.421  1.7879  1.6176 -1.2727
 6340SOL    OH245218   1.690   3.492   6.220 -0.0382 -0.6043  0.2783
 6340SOL     H145219   1.719   3.542   6.297  0.6710  0.2846 -0.5602
 6340SOL     H245220   1.595   3.485   6.231 -0.3030  1.8329 -0.0964
 6341SOL    OH245221   4.932   4.964   1.647  0.4256  0.8930 -0.3008
 6341SOL     H145222   4.877   4.922   1.581  0.7785  1.2025 -0.7898
 6341SOL     H245223   5.013   4.987   1.601  0.6793  1.1051  0.2376
 6342SOL    OH245224   5.718   6.588   0.255 -0.2196  0.0168 -0.3170
 6342SOL     H145225   5.686   6.536   0.181 -0.6932  1.7860 -1.3862
 6342SOL     H245226   5.775   6.654   0.216 -0.3757  0.8988  0.8948
 6343SOL    OH245227   3.915   1.374   5.783 -0.0521 -0.4193  0.1963
 6343SOL     H145228   3.856   1.344   5.853 -0.2607  0.1331  0.2638
 6343SOL     H245229   3.869   1.352   5.702  0.2422 -1.1647  0.2295
 6344SOL    OH245230   6.691   0.191   5.772 -0.6795 -0.0839 -0.4612
 6344SOL     H145231   6.608   0.219   5.735 -0.8168 -0.2362 -0.2722
 6344SOL     H245232   6.685   0.214   5.865 -1.3451 -1.9483 -0.0136
 6345SOL    OH245233   2.918   5.484   7.289 -0.5637  0.0652  0.0065
 6345SOL     H145234   2.973   5.561   7.276  1.1922 -1.1047  0.3789
 6345SOL     H245235   2.852   5.490   7.220 -0.6660  2.0604  0.2256
 6346SOL    OH245236   3.015   2.977   7.680  0.6083 -0.0478 -0.1867
 6346SOL     H145237   2.985   2.994   7.591 -0.7529 -1.0726  0.0617
 6346SOL     H245238   2.941   3.005   7.735  0.7382 -1.0645  0.5154
 6347SOL    OH245239   0.553   0.628   6.103 -0.2496  0.0488  0.7530
 6347SOL     H145240   0.540   0.718   6.072  0.2601 -0.4775 -1.0358
 6347SOL     H245241   0.642   0.628   6.139 -0.3805  0.3537  1.0749
 6348SOL    OH245242   1.133   2.704   0.515 -0.3861  0.2344 -0.3501
 6348SOL     H145243   1.141   2.648   0.592  0.3772  0.8566  0.0234
 6348SOL     H245244   1.054   2.672   0.471 -1.8255  1.0035  1.6109
 6349SOL    OH245245   4.960   0.666   6.482  0.0885  0.0351  0.1832
 6349SOL     H145246   4.931   0.653   6.573 -1.0928 -2.7252 -0.5260
 6349SOL     H245247   5.041   0.615   6.476 -0.8199 -1.3414 -0.7644
 6350SOL    OH245248   3.705   4.925   6.837  0.6614  0.3334  0.2980
 6350SOL     H145249   3.714   5.013   6.800 -1.2358 -0.3131 -1.7949
 6350SOL     H245250   3.756   4.869   6.779  1.8775  0.0253  1.6376
 6351SOL    OH245251   0.802   6.973   7.487  0.1326 -0.6192  0.0480
 6351SOL     H145252   0.778   6.880   7.492  1.0632 -0.8902 -0.3924
 6351SOL     H245253   0.813   6.990   7.394 -1.8216  0.4137 -0.0243
 6352SOL    OH245254   5.919   3.979   8.241 -0.5186  0.1416 -0.3452
 6352SOL     H145255   5.952   3.905   8.190 -2.1034 -0.2065 -0.9290
 6352SOL     H245256   5.965   4.055   8.207  0.7962 -0.5115 -0.0536
 6353SOL    OH245257   5.727   2.556   2.162 -0.2614  0.0530  0.3334
 6353SOL     H145258   5.729   2.485   2.098  2.6334  1.0110 -0.7087
 6353SOL     H245259   5.796   2.536   2.224  0.3764  1.7469  0.2188
 6354SOL    OH245260   7.343   0.696   0.307  0.0628 -0.2691 -0.7344
 6354SOL     H145261   7.419   0.686   0.249  0.0149  0.9829 -1.0289
 6354SOL     H245262   7.318   0.788   0.298 -1.7713 -0.7779 -0.9702
 6355SOL    OH245263   5.386   6.021   0.971  0.7348 -0.7897  0.0370
 6355SOL     H145264   5.405   5.962   1.044 -1.1058  0.5912  1.6548
 6355SOL     H245265   5.318   6.080   1.004  1.4240  1.2560 -2.0653
 6356SOL    OH245266   6.695   7.023   6.595  0.1671 -0.3743  0.2150
 6356SOL     H145267   6.651   7.057   6.673  1.0862  0.4658  0.3915
 6356SOL     H245268   6.627   7.020   6.528 -0.1782  0.8603  0.4950
 6357SOL    OH245269   0.295   3.560   8.103 -0.2517 -0.4561  0.0075
 6357SOL     H145270   0.387   3.534   8.098  0.1363  1.1797 -2.2293
 6357SOL     H245271   0.257   3.529   8.021 -2.1261 -2.4899  1.5609
 6358SOL    OH245272   3.151   7.791   5.768 -0.2484  0.4440  0.8199
 6358SOL     H145273   3.086   7.777   5.700  0.5792 -1.0731  0.3116
 6358SOL     H245274   3.131   7.725   5.834  0.6374  0.1037  0.7529
 6359SOL    OH245275   5.752   0.063   0.078  0.0376  0.1463 -0.1335
 6359SOL     H145276   5.725   0.046  -0.013  0.1417 -0.4337 -0.0617
 6359SOL     H245277   5.835   0.016   0.086  0.0469  0.2346  0.2476
 6360SOL    OH245278   6.925   6.072   7.391  0.1247  0.3079 -0.3249
 6360SOL     H145279   6.949   6.045   7.302  0.4283  2.0321 -0.7868
 6360SOL     H245280   6.847   6.021   7.411 -0.3007  0.3380 -1.8364
 6361SOL    OH245281   6.405   5.991   8.207  0.5345 -0.3760 -0.6157
 6361SOL     H145282   6.441   5.983   8.119  1.2295  0.3044 -0.3998
 6361SOL     H245283   6.447   6.069   8.243  0.0383 -0.4891  0.2133
 6362SOL    OH245284   3.480   3.361   7.053 -0.0566 -0.2118 -0.7113
 6362SOL     H145285   3.511   3.436   7.104  0.6527 -1.1381  0.2233
 6362SOL     H245286   3.391   3.385   7.028  0.5421  1.4080 -1.3389
 6363SOL    OH245287   0.366   3.601   0.918 -0.7386 -0.5665  0.1901
 6363SOL     H145288   0.327   3.517   0.893 -2.3864 -0.2411  1.6162
 6363SOL     H245289   0.383   3.645   0.835 -0.5041 -2.0121 -0.5501
 6364SOL    OH245290   1.736   1.691   7.303 -0.5667  0.3442  0.4602
 6364SOL     H145291   1.691   1.607   7.290  1.1292 -0.5354  0.1374
 6364SOL     H245292   1.722   1.711   7.396 -1.1793 -0.1721  0.4828
 6365SOL    OH245293   5.334   2.274   1.356 -0.4515 -0.2424  0.6138
 6365SOL     H145294   5.391   2.347   1.332 -0.3836 -0.5100 -0.0653
 6365SOL     H245295   5.246   2.305   1.335 -0.8134  1.0678  3.8966
 6366SOL    OH245296   3.678   3.550   1.405  0.0896  0.4533 -0.6927
 6366SOL     H145297   3.771   3.568   1.395  0.3097 -0.8217 -0.9906
 6366SOL     H245298   3.656   3.581   1.493  0.6106  1.5022 -0.9299
 6367SOL    OH245299   7.253   2.150   7.374 -0.2320  0.1060  0.2397
 6367SOL     H145300   7.347   2.134   7.383 -0.5370 -1.4866  0.6054
 6367SOL     H245301   7.211   2.071   7.406 -1.7094  0.6374 -0.3156
 6368SOL    OH245302   3.307   1.393   0.287  0.8113  0.3919  0.2461
 6368SOL     H145303   3.231   1.335   0.280  1.2902 -0.2440  0.2410
 6368SOL     H245304   3.300   1.450   0.210  0.3518  0.3211  0.2320
 6369SOL    OH245305   2.699   2.938   7.462 -0.0994 -0.0971 -0.4745
 6369SOL     H145306   2.639   3.008   7.437 -1.3123 -0.7461  0.5533
 6369SOL     H245307   2.642   2.866   7.490  1.1415 -1.0914 -0.4456
 6370SOL    OH245308   4.765   3.913   8.286 -0.5344  0.1333  0.4155
 6370SOL     H145309   4.861   3.911   8.290 -0.5767  0.7005  1.8319
 6370SOL     H245310   4.745   3.990   8.233 -0.2365  0.8728  1.3728
 6371SOL    OH245311   4.652   7.628   6.585 -0.5652  0.1521 -0.5512
 6371SOL     H145312   4.618   7.665   6.667 -0.7718 -0.7775 -0.2141
 6371SOL     H245313   4.706   7.698   6.548 -1.3295  0.9607 -0.1523
 6372SOL    OH245314   6.531   5.256   0.803  0.2510  0.3495 -0.2964
 6372SOL     H145315   6.439   5.263   0.830 -0.1392 -0.1907 -1.4779
 6372SOL     H245316   6.529   5.265   0.708  1.3814 -0.1175 -0.3729
 6373SOL    OH245317   1.163   6.179   7.844 -0.0250  0.0016 -0.5788
 6373SOL     H145318   1.101   6.253   7.845 -0.7562 -0.6061  0.0370
 6373SOL     H245319   1.142   6.131   7.764  0.2419  0.2845 -0.8199
 6374SOL    OH245320   6.743   7.538   1.130 -0.6002 -0.9098  0.4341
 6374SOL     H145321   6.752   7.547   1.225 -2.4759  0.0675  0.5483
 6374SOL     H245322   6.650   7.550   1.114 -0.4084 -1.8119 -1.4697
 6375SOL    OH245323   4.701   2.993   5.989  0.0157  0.1036  0.0133
 6375SOL     H145324   4.648   2.913   5.993 -0.0784  0.1666  0.0411
 6375SOL     H245325   4.782   2.966   5.946  0.2640 -0.1582  0.6291
 6376SOL    OH245326   1.236   5.831   7.033  0.0679  0.1724 -0.7572
 6376SOL     H145327   1.306   5.772   7.002 -0.2412  0.7620 -2.6701
 6376SOL     H245328   1.249   5.836   7.127  1.3775 -1.3301 -0.8270
 6377SOL    OH245329   4.605   1.051   1.206  0.0043  0.3614  0.0046
 6377SOL     H145330   4.530   1.063   1.264 -0.5339  0.7869 -0.7573
 6377SOL     H245331   4.680   1.080   1.257  0.1060 -3.0496  1.9039
 6378SOL    OH245332   2.482   2.815   1.466 -0.0185 -0.1914 -0.0847
 6378SOL     H145333   2.540   2.890   1.452 -0.5919  0.0098 -1.4766
 6378SOL     H245334   2.535   2.752   1.514  1.8732 -0.6258 -2.6494
 6379SOL    OH245335   4.260   2.861   2.054  0.2508 -0.3690  0.6018
 6379SOL     H145336   4.213   2.904   1.982  1.0328  2.2531  1.5974
 6379SOL     H245337   4.231   2.908   2.132  2.8657 -0.1386  1.4643
 6380SOL    OH245338   3.889   0.018   1.964 -0.2412  0.0948  0.1804
 6380SOL     H145339   3.975   0.053   1.987 -0.0295 -0.7478  0.7229
 6380SOL     H245340   3.898  -0.009   1.872  0.9621 -2.5209  1.0005
 6381SOL    OH245341   6.180   2.338   2.195 -1.1718 -0.6904  0.5704
 6381SOL     H145342   6.145   2.354   2.107 -1.4322  0.0083  0.7987
 6381SOL     H245343   6.188   2.243   2.200 -1.8361 -0.7816  0.0445
 6382SOL    OH245344   7.198   2.535   0.556 -0.3528  0.5383  0.1669
 6382SOL     H145345   7.238   2.595   0.619 -1.6944  0.3996  1.1760
 6382SOL     H245346   7.178   2.590   0.480  0.1332  0.9641  0.3381
 6383SOL    OH245347   6.138   4.170   2.022 -0.0808  0.3552  0.0348
 6383SOL     H145348   6.158   4.244   1.965 -0.9296  0.0559 -0.6614
 6383SOL     H245349   6.043   4.164   2.022  0.0056 -1.9925 -1.5729
 6384SOL    OH245350   2.756   1.966   6.516 -0.5327 -0.7895 -0.5466
 6384SOL     H145351   2.799   1.895   6.469  0.8212 -0.9828  0.9315
 6384SOL     H245352   2.741   1.930   6.604 -0.3669  0.5441  0.0413
 6385SOL    OH245353   6.103   0.088   7.195 -0.0161  0.2596  0.4774
 6385SOL     H145354   6.083   0.175   7.161  1.5056  0.7474  0.7776
 6385SOL     H245355   6.060   0.028   7.135 -0.0897  1.1973 -0.4251
 6386SOL    OH245356   2.139   1.578   1.869  0.4852 -0.1352  0.0637
 6386SOL     H145357   2.087   1.506   1.904 -1.0065  0.7244 -0.3465
 6386SOL     H245358   2.216   1.536   1.831  0.1854 -1.4080  0.8309
 6387SOL    OH245359   3.368   7.638   5.757  0.0892  0.1612  0.3310
 6387SOL     H145360   3.311   7.712   5.739 -0.8926 -0.2128  1.8118
 6387SOL     H245361   3.445   7.652   5.701 -0.8946  1.3158 -0.7513
 6388SOL    OH245362   1.311   0.826   0.396  0.0462  0.8029 -0.1941
 6388SOL     H145363   1.396   0.854   0.431  0.5254 -1.7984  0.7890
 6388SOL     H245364   1.252   0.825   0.471 -1.3925  4.3242 -1.1662
 6389SOL    OH245365   4.682   0.279   8.202  0.4626  0.0976  0.0523
 6389SOL     H145366   4.773   0.268   8.173  0.6138  3.4219 -0.9405
 6389SOL     H245367   4.686   0.350   8.267 -1.5533  1.1022 -0.8765
 6390SOL    OH245368   5.012   0.318   6.692 -0.4037  0.2744  0.3399
 6390SOL     H145369   4.999   0.226   6.715  0.2353  0.3822  1.1782
 6390SOL     H245370   5.099   0.321   6.654 -0.5962  0.4638 -0.0858
 6391SOL    OH245371   5.868   5.316   6.868  0.4191 -0.4321  0.0757
 6391SOL     H145372   5.862   5.293   6.775 -1.4174  1.8027 -0.3854
 6391SOL     H245373   5.888   5.409   6.868 -1.3003 -0.0523  1.9247
 6392SOL    OH245374   1.835   6.136   0.255 -0.5675 -0.0062 -0.1219
 6392SOL     H145375   1.782   6.172   0.185  0.7012 -0.2411 -1.2265
 6392SOL     H245376   1.843   6.208   0.318 -0.7749  0.5734 -0.7545
 6393SOL    OH245377   1.569   1.674   0.875  0.3759  0.0900 -0.2544
 6393SOL     H145378   1.546   1.708   0.788  2.5637  0.3715 -0.7450
 6393SOL     H245379   1.597   1.584   0.859 -2.8890 -1.2093  0.7106
 6394SOL    OH245380   1.796   0.719   6.230  0.0291 -0.0685 -0.1572
 6394SOL     H145381   1.803   0.794   6.289 -0.4656 -1.1171  1.2411
 6394SOL     H245382   1.813   0.756   6.143 -0.6913  1.7510  0.4548
 6395SOL    OH245383   5.814   4.478   3.255  0.1502 -0.6585 -0.1311
 6395SOL     H145384   5.719   4.480   3.250  0.2010  0.0128 -0.9662
 6395SOL     H245385   5.833   4.431   3.337 -0.8977  2.1132  1.7591
 6396SOL    OH245386   6.274   0.819   0.401  0.0261  0.0239 -0.0116
 6396SOL     H145387   6.314   0.875   0.467 -0.9734  1.1922 -0.3607
 6396SOL     H245388   6.338   0.749   0.386  1.1683  0.9011  0.6628
 6397SOL    OH245389   3.953   0.606   5.851  0.2431 -0.5385  0.3323
 6397SOL     H145390   3.859   0.592   5.860  0.5454 -0.8766  3.6292
 6397SOL     H245391   3.989   0.518   5.845  0.3041 -0.3840 -1.8828
 6398SOL    OH245392   1.178   3.102   6.160 -0.3353 -0.4474  0.9268
 6398SOL     H145393   1.253   3.154   6.133 -0.3242 -0.1399  1.5510
 6398SOL     H245394   1.202   3.012   6.137  0.1144 -0.3157  0.8812
 6399SOL    OH245395   6.254   7.927   0.538 -0.3837  0.7970 -0.3356
 6399SOL     H145396   6.336   7.963   0.503 -0.4062  1.0429 -0.1365
 6399SOL     H245397   6.236   7.980   0.616 -0.6434  0.6336 -0.2849
 6400SOL    OH245398   1.453   1.756   1.854  0.1896  0.3589 -0.3855
 6400SOL     H145399   1.363   1.725   1.864  0.6990 -0.4341  2.1562
 6400SOL     H245400   1.453   1.805   1.772 -2.4958  0.1524 -0.5457
 6401SOL    OH245401   0.987   1.385   0.879 -0.1822  0.3697 -0.1875
 6401SOL     H145402   0.917   1.439   0.842 -0.6905 -0.4278 -0.4093
 6401SOL     H245403   1.034   1.443   0.938 -1.5280  0.7161  0.5671
 6402SOL    OH245404   6.928   5.987   1.290 -0.4442  0.1164 -0.7667
 6402SOL     H145405   7.017   5.999   1.257 -0.5742 -0.7661 -1.4435
 6402SOL     H245406   6.900   5.903   1.255 -1.7463  0.6288 -1.0014
 6403SOL    OH245407   5.725   1.982   0.275 -0.1900 -0.1072 -0.7967
 6403SOL     H145408   5.747   1.997   0.183 -2.1172  0.0991 -1.2332
 6403SOL     H245409   5.637   1.944   0.274  0.2962 -1.3634  0.8971
 6404SOL    OH245410   4.158   0.163   7.927 -0.0745  0.6293 -0.4330
 6404SOL     H145411   4.065   0.146   7.915  0.4178 -0.8740 -2.5057
 6404SOL     H245412   4.197   0.077   7.941  0.9034  1.3334  1.3860
 6405SOL    OH245413   6.941   5.785   1.131  0.3248 -0.3855  0.2364
 6405SOL     H145414   6.960   5.692   1.125  1.8771 -0.1013  0.5654
 6405SOL     H245415   6.999   5.825   1.067 -1.0738  0.2780 -0.6578
 6406SOL    OH245416   6.674   2.138   1.193 -0.2559  0.0532 -0.1009
 6406SOL     H145417   6.698   2.086   1.117  1.1411  0.1859  0.2304
 6406SOL     H245418   6.598   2.188   1.165 -0.0544 -0.2661 -1.2540
 6407SOL    OH245419   5.497   6.313   5.840  0.0279  0.1903 -0.1163
 6407SOL     H145420   5.581   6.275   5.867 -1.1956 -1.0802  2.0673
 6407SOL     H245421   5.465   6.253   5.773  0.6051  0.3547 -0.5420
 6408SOL    OH245422   3.240   6.400   1.493 -0.7880 -0.2515  0.0766
 6408SOL     H145423   3.282   6.327   1.539  0.3565 -0.2721 -0.9957
 6408SOL     H245424   3.216   6.365   1.408 -0.3237  0.5847 -0.4102
 6409SOL    OH245425   5.901   4.922   6.298 -0.3515 -0.0669  0.2618
 6409SOL     H145426   5.914   5.006   6.253  1.0072 -0.1168  0.5348
 6409SOL     H245427   5.907   4.857   6.228  1.1797 -0.1045  0.4124
 6410SOL    OH245428   2.750   0.341   1.005 -0.0650 -0.8620 -0.0173
 6410SOL     H145429   2.804   0.413   0.971 -0.3444 -0.1156  1.1043
 6410SOL     H245430   2.808   0.265   1.001  0.3835 -0.4875 -0.7976
 6411SOL    OH245431   2.306   0.082   2.019 -0.4245  0.4823 -0.1594
 6411SOL     H145432   2.280   0.174   2.019  0.4663  0.7418 -0.2355
 6411SOL     H245433   2.266   0.046   1.940 -2.0985  0.4152  0.7029
 6412SOL    OH245434   4.853   6.785   7.771 -0.3706  0.3428 -0.1675
 6412SOL     H145435   4.942   6.754   7.785  0.1240  1.7856  0.0336
 6412SOL     H245436   4.861   6.881   7.769 -1.8918  0.4888 -0.2919
 6413SOL    OH245437   4.136   0.843   1.194  0.2550  0.3280 -0.1486
 6413SOL     H145438   4.082   0.905   1.243 -0.8915 -0.4440 -0.4132
 6413SOL     H245439   4.225   0.857   1.226 -0.4333  0.0299  1.9436
 6414SOL    OH245440   0.741   4.981   7.988 -0.0165  0.1489  0.3543
 6414SOL     H145441   0.658   4.939   7.963  0.3022 -0.1392 -0.2236
 6414SOL     H245442   0.734   5.070   7.955 -1.0750  0.8477  2.3793
 6415SOL    OH245443   5.176   0.449   2.196  0.2786 -0.4025  0.5559
 6415SOL     H145444   5.267   0.450   2.227  0.4358  0.0256  0.0958
 6415SOL     H245445   5.125   0.418   2.271  0.7569 -0.2231  0.9583
 6416SOL    OH245446   1.179   0.141   8.000  0.8131  0.2339 -0.2743
 6416SOL     H145447   1.197   0.119   7.909  1.1333 -3.1602  0.5122
 6416SOL     H245448   1.123   0.218   7.996 -0.5945 -0.8612 -3.4314
 6417SOL    OH245449   0.225   3.804   6.401 -0.0717 -0.3277  0.7117
 6417SOL     H145450   0.199   3.832   6.489  0.0656 -0.9440  0.9520
 6417SOL     H245451   0.197   3.712   6.396 -0.1398 -0.2782  0.0873
 6418SOL    OH245452   0.627   6.319   6.131  0.2269 -0.2088 -0.0777
 6418SOL     H145453   0.652   6.279   6.048 -0.2953  0.1782 -0.4288
 6418SOL     H245454   0.531   6.324   6.127  0.1253 -1.0283  0.9344
 6419SOL    OH245455   5.208   4.806   1.627  0.7045  0.3208  0.2975
 6419SOL     H145456   5.221   4.889   1.582  0.8539 -0.4441 -1.1151
 6419SOL     H245457   5.248   4.741   1.569  2.1836 -0.5349  2.2258
 6420SOL    OH245458   4.518   2.400   1.158  0.1400  0.4070 -0.0003
 6420SOL     H145459   4.502   2.444   1.241 -2.5434 -0.1673 -0.1623
 6420SOL     H245460   4.606   2.364   1.166  1.0973  2.9472  1.3984
 6421SOL    OH245461   0.645   5.359   2.037 -0.2847  0.1322  0.0185
 6421SOL     H145462   0.611   5.291   2.095 -0.6275 -0.6201 -1.0410
 6421SOL     H245463   0.714   5.316   1.987 -0.5337  0.5475 -0.6962
 6422SOL    OH245464   4.937   3.267   0.803 -0.1786 -0.0284  0.5785
 6422SOL     H145465   4.970   3.247   0.891 -2.1422  0.0683  1.3652
 6422SOL     H245466   4.843   3.251   0.809 -0.4112  0.5477 -1.3563
 6423SOL    OH245467   4.628   5.741   2.204  0.6288 -0.6326 -0.2751
 6423SOL     H145468   4.712   5.777   2.173 -0.5682  0.7283 -2.0699
 6423SOL     H245469   4.562   5.796   2.161 -1.2058 -3.0399 -0.5812
 6424SOL    OH245470   0.306   6.715   6.778  0.2598  0.2037  0.0395
 6424SOL     H145471   0.289   6.644   6.716 -2.2235 -0.4120  1.3768
 6424SOL     H245472   0.313   6.793   6.723  0.2372 -0.6464 -1.1999
 6425SOL    OH245473   2.483   5.804   5.764 -0.3004  0.3333 -0.0100
 6425SOL     H145474   2.437   5.862   5.825 -0.9462  1.5343 -1.5900
 6425SOL     H245475   2.425   5.729   5.754 -1.2605  1.1728 -0.8666
 6426SOL    OH245476   0.337   3.052   5.742  0.2243 -0.1265 -0.1520
 6426SOL     H145477   0.319   3.137   5.783  0.4086 -0.1692  0.0161
 6426SOL     H245478   0.413   3.068   5.687  0.5214 -0.2895  0.2129
 6427SOL    OH245479   1.195   3.316   5.632 -0.3873 -0.1936  0.1532
 6427SOL     H145480   1.265   3.308   5.697  2.0193 -0.4855 -2.3691
 6427SOL     H245481   1.190   3.410   5.614 -1.1679 -0.0945  0.8498
 6428SOL    OH245482   0.149   7.838   7.745  0.0087 -0.5448 -0.2673
 6428SOL     H145483   0.117   7.796   7.825  1.6756  0.1669  0.7814
 6428SOL     H245484   0.243   7.849   7.759  0.1999  0.2260 -2.0434
 6429SOL    OH245485   3.659   3.057   2.438  0.2176 -0.0799  0.3899
 6429SOL     H145486   3.704   3.129   2.394 -0.4758  0.5179  0.6616
 6429SOL     H245487   3.730   3.002   2.472  0.7613 -0.3990 -1.2183
 6430SOL    OH245488   1.548   4.609   7.668 -0.1067 -0.0451  0.1527
 6430SOL     H145489   1.536   4.518   7.694 -1.0570  0.2903  0.9546
 6430SOL     H245490   1.640   4.628   7.685 -0.3294 -0.3212  1.7634
 6431SOL    OH245491   4.589   2.900   7.954 -0.2122 -0.3603  0.3213
 6431SOL     H145492   4.632   2.979   7.987 -0.2667  0.0862 -0.6689
 6431SOL     H245493   4.633   2.828   8.001  0.9064  0.1547  0.0785
 6432SOL    OH245494   0.536   1.724   1.321 -0.4113 -0.3447 -0.1333
 6432SOL     H145495   0.490   1.797   1.279  0.5006 -0.0433 -0.6284
 6432SOL     H245496   0.467   1.662   1.344 -1.4427  1.5963  2.2078
 6433SOL    OH245497   2.869   4.681   7.236  0.4977  0.4553  0.9421
 6433SOL     H145498   2.824   4.599   7.253 -0.7687  0.2675 -2.7614
 6433SOL     H245499   2.959   4.656   7.216 -0.1121 -0.1855 -1.1322
 6434SOL    OH245500   1.365   3.001   0.135  0.0277 -0.7084  0.5501
 6434SOL     H145501   1.278   3.004   0.173 -0.5317 -0.5045 -0.7128
 6434SOL     H245502   1.404   2.921   0.170 -1.2008 -1.5557  0.0221
 6435SOL    OH245503   3.189   4.396   6.578 -0.1952 -0.0618 -0.2820
 6435SOL     H145504   3.179   4.360   6.666  0.0957 -3.1322 -1.4645
 6435SOL     H245505   3.280   4.376   6.555 -0.4187  0.3003 -1.4803
 6436SOL    OH245506   2.584   6.634   6.927 -0.2684  0.0235  0.3015
 6436SOL     H145507   2.513   6.689   6.894 -0.0151  0.1815  0.0174
 6436SOL     H245508   2.664   6.679   6.900 -0.0511 -0.9685 -0.7687
 6437SOL    OH245509   1.223   6.819   6.513  0.1861  0.2834  0.0528
 6437SOL     H145510   1.149   6.843   6.456 -0.6453  0.5647  1.2420
 6437SOL     H245511   1.258   6.739   6.475 -1.2171 -0.2696 -0.0720
 6438SOL    OH245512   2.220   5.409   1.749  0.2808 -0.2774  0.3557
 6438SOL     H145513   2.270   5.479   1.707  1.8123 -1.1752  0.6531
 6438SOL     H245514   2.232   5.423   1.842  0.6971 -0.9792  0.4189
 6439SOL    OH245515   6.991   4.500   8.154 -0.0472 -0.5808 -0.0957
 6439SOL     H145516   6.999   4.565   8.084 -1.2768 -2.0380 -1.6595
 6439SOL     H245517   6.923   4.534   8.212  0.3721  0.2423 -0.0910
 6440SOL    OH245518   1.969   5.349   7.235 -0.1379 -0.2036 -0.1812
 6440SOL     H145519   2.014   5.265   7.233 -3.0603 -1.8793  1.4698
 6440SOL     H245520   1.987   5.388   7.149  3.5071 -1.2248  0.0121
 6441SOL    OH245521   7.488   6.893   6.457 -0.0472  0.3922 -0.0894
 6441SOL     H145522   7.579   6.882   6.484 -0.1366  1.9496  0.9157
 6441SOL     H245523   7.438   6.834   6.513  0.1671  0.8419  0.5830
 6442SOL    OH245524   1.072   0.759   1.924  0.5201  0.0771 -0.1276
 6442SOL     H145525   1.020   0.827   1.881 -0.1170  0.0115  0.5321
 6442SOL     H245526   1.008   0.695   1.955  1.1704 -1.1836 -1.3534
 6443SOL    OH245527   5.793   7.866   5.776 -0.0388  0.0437 -0.2757
 6443SOL     H145528   5.869   7.919   5.800 -0.4375  0.3219  0.3705
 6443SOL     H245529   5.720   7.904   5.826 -0.3964 -0.8868 -0.0828
 6444SOL    OH245530   1.089   5.540   2.400  0.1271 -0.9971  0.6061
 6444SOL     H145531   1.045   5.531   2.315  2.2763 -1.5511 -0.4817
 6444SOL     H245532   1.094   5.634   2.415 -2.6286 -0.9387  1.4178
 6445SOL    OH245533   3.239   1.166   5.796 -0.0666 -0.3988  0.9033
 6445SOL     H145534   3.158   1.206   5.766  1.4991  0.9812 -1.6674
 6445SOL     H245535   3.228   1.072   5.778  0.2725  0.2152 -2.8789
 6446SOL    OH245536   5.554   2.654   7.550 -0.0914  0.4987  0.5732
 6446SOL     H145537   5.551   2.749   7.544  3.5182  0.8780  2.8678
 6446SOL     H245538   5.549   2.635   7.644 -1.2986 -1.6231  0.1272
 6447SOL    OH245539   3.488   2.767   1.253 -0.5623 -0.4328 -0.1087
 6447SOL     H145540   3.533   2.697   1.302 -0.4959 -0.5251 -0.3003
 6447SOL     H245541   3.537   2.773   1.171  0.7091  1.2547  0.7479
 6448SOL    OH245542   7.899   0.012   8.170  0.5616  0.2773 -0.4401
 6448SOL     H145543   7.823   0.054   8.130 -0.2307 -0.0098  0.7591
 6448SOL     H245544   7.971   0.074   8.154  0.0342  0.6563 -1.3738
 6449SOL    OH245545   3.127   5.777   6.066 -0.0697  0.7871  0.0505
 6449SOL     H145546   3.200   5.721   6.044  0.9383  1.9768  0.2815
 6449SOL     H245547   3.070   5.775   5.989 -0.2165 -0.8015  0.1965
 6450SOL    OH245548   5.803   5.319   8.166  0.3455  0.2713  0.0416
 6450SOL     H145549   5.710   5.335   8.181  0.1411 -0.0955 -0.7879
 6450SOL     H245550   5.832   5.270   8.243 -0.2067  0.1849  0.1948
 6451SOL    OH245551   3.742   1.008   6.029  0.3306  0.2412  0.1786
 6451SOL     H145552   3.748   1.101   6.009  1.0166  0.3922  1.0178
 6451SOL     H245553   3.802   0.966   5.967 -0.6660  0.2610 -0.7993
 6452SOL    OH245554   2.488   3.656   2.256 -0.7732 -0.4599 -0.1390
 6452SOL     H145555   2.535   3.737   2.233  1.2167 -1.6194 -0.3304
 6452SOL     H245556   2.526   3.590   2.198 -1.7082 -1.7194  0.6701
 6453SOL    OH245557   1.296   0.424   6.389  0.0561 -0.2608  0.3462
 6453SOL     H145558   1.257   0.483   6.454 -1.3060 -1.0160  0.2329
 6453SOL     H245559   1.244   0.440   6.310 -0.7579 -2.0703  0.4919
 6454SOL    OH245560   0.457   6.963   7.623  0.5442  0.0854 -0.4528
 6454SOL     H145561   0.481   6.947   7.531  1.5803 -0.5459 -0.0848
 6454SOL     H245562   0.452   7.058   7.630  0.1792  0.1322 -1.2318
 6455SOL    OH245563   5.913   5.153   6.155  0.7906  0.1001  0.1904
 6455SOL     H145564   5.899   5.133   6.063  0.6687  1.0733 -0.0090
 6455SOL     H245565   5.919   5.249   6.158 -1.4755  0.2450  1.4694
 6456SOL    OH245566   3.689   5.858   1.286  0.6049  0.6255 -0.0563
 6456SOL     H145567   3.710   5.944   1.250  1.2059  0.1463 -0.8715
 6456SOL     H245568   3.774   5.821   1.310  0.3642  0.1919  0.1438
 6457SOL    OH245569   5.418   3.997   0.330 -0.5641  0.5536 -0.0668
 6457SOL     H145570   5.338   4.047   0.312 -0.0703  1.1598 -0.6264
 6457SOL     H245571   5.481   4.029   0.265  0.5899  1.1795  1.3339
 6458SOL    OH245572   7.595   5.555   2.452 -0.2110  0.2329 -0.0311
 6458SOL     H145573   7.568   5.646   2.463 -0.3337  0.2342 -0.3217
 6458SOL     H245574   7.615   5.524   2.540 -2.3123 -0.1319  0.3377
 6459SOL    OH245575   4.755   7.732   0.734 -0.0812 -0.0397 -0.0328
 6459SOL     H145576   4.776   7.735   0.828 -1.4276 -1.9092  0.3537
 6459SOL     H245577   4.794   7.812   0.699 -0.9482  1.5240  2.4007
 6460SOL    OH245578   6.598   2.566   2.621  0.3060 -0.5903 -0.5893
 6460SOL     H145579   6.670   2.623   2.647 -1.1844  0.1921  1.9261
 6460SOL     H245580   6.632   2.477   2.630  1.6782 -0.1878 -1.6674
 6461SOL    OH245581   5.202   2.013   0.124  0.2194 -0.1182 -0.1992
 6461SOL     H145582   5.128   2.001   0.064  0.4313 -1.0971 -0.2599
 6461SOL     H245583   5.226   1.925   0.150  0.3204  0.2900  1.1012
 6462SOL    OH245584   5.308   6.573   7.384  0.4437 -0.1686 -0.2475
 6462SOL     H145585   5.380   6.510   7.386 -0.4319 -1.1834 -0.1831
 6462SOL     H245586   5.240   6.530   7.332 -0.0124  0.8995 -0.5488
 6463SOL    OH245587   2.241   3.586   7.964 -0.2140 -0.6417 -1.1476
 6463SOL     H145588   2.166   3.635   7.930  0.5573  0.9520 -0.5640
 6463SOL     H245589   2.314   3.647   7.961  0.5819 -1.4790  0.3618
 6464SOL    OH245590   6.816   4.839   5.867  0.4371 -0.4747  0.3351
 6464SOL     H145591   6.780   4.785   5.937 -0.0972  2.5709  2.5428
 6464SOL     H245592   6.752   4.909   5.855  1.9014  0.6749 -1.1526
 6465SOL    OH245593   0.890   6.207   1.157 -0.2450 -0.0669 -0.0205
 6465SOL     H145594   0.964   6.169   1.110  0.7018  0.4667  1.0065
 6465SOL     H245595   0.846   6.262   1.092  0.3227 -0.3061 -0.6093
 6466SOL    OH245596   0.594   6.910   8.209  0.1605 -0.1621 -0.5573
 6466SOL     H145597   0.588   6.820   8.241  0.0873  0.6109  1.6907
 6466SOL     H245598   0.535   6.912   8.134 -1.1405 -1.5716  0.3760
 6467SOL    OH245599   1.008   4.751   0.056 -0.2726 -0.0717 -0.1872
 6467SOL     H145600   0.982   4.773  -0.033 -0.4989 -1.1459 -0.3887
 6467SOL     H245601   0.947   4.800   0.112 -1.1381 -0.6281 -0.6342
 6468SOL    OH245602   2.419   5.928   7.399  0.2712  0.1947  0.1229
 6468SOL     H145603   2.397   6.021   7.397  0.1378  0.2125  1.8420
 6468SOL     H245604   2.335   5.883   7.398  0.3243  0.0975 -0.0741
 6469SOL    OH245605   1.549   2.419   8.031  0.1939 -0.1519 -0.1520
 6469SOL     H145606   1.561   2.332   7.992  0.5755 -0.1669 -0.0040
 6469SOL     H245607   1.594   2.413   8.115 -0.1063  0.0714  0.0212
 6470SOL    OH245608   1.787   5.360   0.725 -0.1164  0.2752  0.0647
 6470SOL     H145609   1.858   5.424   0.728 -0.2231  0.3657  0.8538
 6470SOL     H245610   1.810   5.296   0.793 -0.9259  0.4507  0.5104
 6471SOL    OH245611   6.153   4.044   0.192  0.4315 -0.2034  0.3320
 6471SOL     H145612   6.179   4.118   0.137  1.8435  0.1621  1.4712
 6471SOL     H245613   6.221   4.038   0.259  1.1846 -3.5121 -0.6313
 6472SOL    OH245614   4.595   1.104   5.686 -0.2289 -0.2637 -0.2460
 6472SOL     H145615   4.501   1.089   5.683 -0.7529  2.5221  0.8735
 6472SOL     H245616   4.616   1.110   5.779  0.6913  1.1307 -0.5226
 6473SOL    OH245617   2.350   4.067   2.205  0.0423  0.5260 -0.5907
 6473SOL     H145618   2.295   4.021   2.268 -1.5760  0.2354 -2.1654
 6473SOL     H245619   2.348   4.158   2.233 -1.0116  0.4667 -0.4635
 6474SOL    OH245620   7.393   3.745   6.721 -0.5127  0.2405 -0.4882
 6474SOL     H145621   7.307   3.766   6.683 -1.0572  0.2568  0.7380
 6474SOL     H245622   7.382   3.657   6.758 -0.4084  0.7862  0.8651
 6475SOL    OH245623   1.062   1.856   6.977  0.0027  0.2358 -0.1174
 6475SOL     H145624   0.980   1.867   7.024 -0.1655 -1.1061 -0.0792
 6475SOL     H245625   1.044   1.886   6.888 -0.4002  0.3836  0.0155
 6476SOL    OH245626   3.902   0.141   6.258  0.0752 -0.2349  0.0996
 6476SOL     H145627   3.977   0.191   6.290  0.0778 -0.8476  1.0836
 6476SOL     H245628   3.830   0.205   6.257  0.0744 -0.2027  1.3686
 6477SOL    OH245629   1.902   7.365   6.391  0.4976 -0.3369 -0.1102
 6477SOL     H145630   1.867   7.276   6.383 -0.6145 -0.1197  2.0742
 6477SOL     H245631   1.828   7.418   6.422  1.4983  1.0919 -0.1023
 6478SOL    OH245632   4.578   1.880   0.185 -0.5026  0.0849 -0.4546
 6478SOL     H145633   4.638   1.806   0.176 -1.0433 -0.5467  0.9380
 6478SOL     H245634   4.629   1.956   0.157 -0.2885 -0.9312 -2.9849
 6479SOL    OH245635   6.477   4.329   0.971  0.1887 -0.1095 -0.2501
 6479SOL     H145636   6.556   4.279   0.948  0.2969 -1.0522  2.0654
 6479SOL     H245637   6.405   4.274   0.941  0.3626 -0.1200 -0.6604
 6480SOL    OH245638   0.866   1.115   7.105 -0.1321 -0.1780 -0.1387
 6480SOL     H145639   0.795   1.178   7.116 -0.2178 -0.0775 -1.2647
 6480SOL     H245640   0.934   1.144   7.166 -1.6624 -1.1867  2.1318
 6481SOL    OH245641   2.949   3.674   1.047  0.1107  0.3075  0.6387
 6481SOL     H145642   2.991   3.751   1.087  1.3229  0.8638 -1.6155
 6481SOL     H245643   2.939   3.612   1.119 -1.2846  2.7203  2.6179
 6482SOL    OH245644   2.293   1.796   0.321  0.1413  0.6198 -0.0062
 6482SOL     H145645   2.206   1.811   0.357  0.0356  2.1703 -0.8572
 6482SOL     H245646   2.294   1.702   0.300 -0.6209  0.1943  1.7841
 6483SOL    OH245647   2.412   0.194   6.608  0.1128 -0.3760 -0.8454
 6483SOL     H145648   2.448   0.204   6.696 -1.0298 -0.6189 -0.3437
 6483SOL     H245649   2.332   0.246   6.608 -0.2217 -0.8783 -1.5475
 6484SOL    OH245650   3.518   3.094   7.115 -0.6005  0.5095  0.3960
 6484SOL     H145651   3.500   3.171   7.061  2.5379  1.7509  0.9846
 6484SOL     H245652   3.573   3.038   7.059  0.5739  0.6321  1.4235
 6485SOL    OH245653   4.677   4.154   1.928 -0.0083 -0.2062 -0.0838
 6485SOL     H145654   4.729   4.186   2.002 -0.1575  0.0874 -0.1053
 6485SOL     H245655   4.662   4.232   1.875 -0.3545 -0.3188 -0.1492
 6486SOL    OH245656   3.673   3.129   7.606 -0.1453 -0.6241 -0.0789
 6486SOL     H145657   3.658   3.047   7.558 -2.8689  0.4000 -1.0837
 6486SOL     H245658   3.651   3.108   7.697 -1.7063 -0.8224 -0.4827
 6487SOL    OH245659   7.619   7.647   6.567  0.0556 -0.0211 -0.1711
 6487SOL     H145660   7.564   7.571   6.587 -1.2017  1.1755  0.9879
 6487SOL     H245661   7.662   7.668   6.650  0.6794  0.3237 -0.5798
 6488SOL    OH245662   5.281   0.457   0.579 -0.2326  0.4240 -0.7268
 6488SOL     H145663   5.337   0.527   0.546  0.5226  0.8297  1.3169
 6488SOL     H245664   5.241   0.494   0.657 -0.2538 -1.2304  0.0713
 6489SOL    OH245665   7.394   2.668   0.053 -0.3797 -0.0938 -0.3059
 6489SOL     H145666   7.335   2.615   0.106  0.4846 -0.2473  0.5135
 6489SOL     H245667   7.336   2.722  -0.000 -1.2597 -0.7568 -0.0247
 6490SOL    OH245668   3.931   6.960   6.763 -0.5182 -0.1610 -0.5525
 6490SOL     H145669   3.877   7.039   6.764  1.7165  1.4146 -0.1263
 6490SOL     H245670   3.945   6.942   6.669  0.0837  0.7526 -0.6414
 6491SOL    OH245671   7.015   0.719   6.118  0.9569  0.1430 -0.6345
 6491SOL     H145672   6.940   0.681   6.073 -0.2803 -0.9024  2.2445
 6491SOL     H245673   7.090   0.667   6.089  0.0051 -1.2788 -0.5544
 6492SOL    OH245674   1.228   0.435   1.464 -0.0507  0.6954  0.2084
 6492SOL     H145675   1.179   0.437   1.381  2.0265  3.1571 -1.0359
 6492SOL     H245676   1.315   0.403   1.439  0.7776  2.0162  1.3035
 6493SOL    OH245677   4.237   5.432   7.705 -0.2162  0.2262  0.1976
 6493SOL     H145678   4.230   5.337   7.698 -0.2095 -0.1223  3.7530
 6493SOL     H245679   4.211   5.464   7.619  0.8383 -3.0135 -1.4264
 6494SOL    OH245680   6.844   6.501   7.369  0.4916 -0.3412 -0.0224
 6494SOL     H145681   6.809   6.456   7.292  2.5202  1.2333 -1.8988
 6494SOL     H245682   6.938   6.484   7.366  0.7766  0.9162  1.3133
 6495SOL    OH245683   5.999   7.203   1.564  0.2169 -0.2505 -0.2399
 6495SOL     H145684   5.998   7.287   1.610 -0.6941 -0.9941  1.1429
 6495SOL     H245685   5.939   7.216   1.490  3.6440  1.7668 -2.8066
 6496SOL    OH245686   7.218   6.270   1.202 -0.5408  0.2125 -0.2930
 6496SOL     H145687   7.267   6.314   1.132  0.5759  0.8253  0.8550
 6496SOL     H245688   7.194   6.340   1.262 -0.3393 -0.4762  0.6081
 6497SOL    OH245689   7.128   0.812   6.350 -0.2888  0.1077 -0.2349
 6497SOL     H145690   7.080   0.788   6.429 -1.0304  1.9269 -0.0851
 6497SOL     H245691   7.074   0.779   6.278 -0.3951 -0.2118 -0.0092
 6498SOL    OH245692   5.136   7.188   0.793  0.1686 -0.3222 -0.0064
 6498SOL     H145693   5.062   7.202   0.734 -0.5634 -2.6814  0.3113
 6498SOL     H245694   5.206   7.242   0.756 -0.6315 -0.8524 -2.3873
 6499SOL    OH245695   7.191   3.581   7.751  0.1258 -1.0003 -0.4420
 6499SOL     H145696   7.283   3.553   7.753  0.0261 -1.3386 -0.5302
 6499SOL     H245697   7.146   3.521   7.811  0.0087 -0.6624 -0.1929
 6500SOL    OH245698   4.868   5.255   1.698  0.0949  0.4531 -0.5756
 6500SOL     H145699   4.948   5.290   1.737 -0.8175  0.3961  1.3583
 6500SOL     H245700   4.885   5.161   1.689  0.1538  0.4016  0.0615
 6501SOL    OH245701   2.092   1.551   6.146  0.1382  0.0581  0.1806
 6501SOL     H145702   2.107   1.512   6.060 -1.7352 -0.3992  0.0307
 6501SOL     H245703   2.025   1.618   6.130  0.1058  0.2717  1.1970
 6502SOL    OH245704   4.138   5.696   0.091 -0.4942  0.3010 -0.3635
 6502SOL     H145705   4.197   5.771   0.093  0.7661 -0.6602 -0.4736
 6502SOL     H245706   4.154   5.651   0.175 -1.2814  0.1874 -0.2677
 6503SOL    OH245707   4.904   6.846   0.349  0.2941  0.2402 -0.1465
 6503SOL     H145708   4.989   6.889   0.357 -0.2662  1.0574  1.4972
 6503SOL     H245709   4.924   6.752   0.351  1.2890  0.4131 -1.3674
 6504SOL    OH245710   4.769   1.885   0.534  0.2492 -0.2722  0.5330
 6504SOL     H145711   4.769   1.789   0.540  0.8589 -0.3332 -0.3203
 6504SOL     H245712   4.849   1.912   0.579 -0.0401 -0.1508  0.9724
 6505SOL    OH245713   3.064   5.948   0.638 -0.1424  0.2153 -0.1200
 6505SOL     H145714   3.067   5.859   0.670 -0.0986 -0.3009 -1.5147
 6505SOL     H245715   3.141   5.991   0.676 -1.6082  0.4250  2.6858
 6506SOL    OH245716   0.823   3.560   7.536 -0.2877 -0.5103  0.2842
 6506SOL     H145717   0.814   3.650   7.506  0.5036 -0.4205  0.3178
 6506SOL     H245718   0.917   3.542   7.531 -0.5248 -1.5758 -0.4180
 6507SOL    OH245719   6.851   0.661   0.805 -1.0240 -0.0048  0.1065
 6507SOL     H145720   6.830   0.732   0.865  0.7746  2.2806 -1.8396
 6507SOL     H245721   6.890   0.593   0.860 -1.9305  0.8940  1.8803
 6508SOL    OH245722   6.630   4.178   7.429  0.3484  0.4177  0.1059
 6508SOL     H145723   6.557   4.194   7.488 -0.2937 -1.2655 -0.2074
 6508SOL     H245724   6.604   4.218   7.346  0.4820  1.1970  0.4290
 6509SOL    OH245725   4.129   2.873   1.096  0.6012 -0.5465 -0.1189
 6509SOL     H145726   4.069   2.939   1.128  1.3627  0.2797 -0.3752
 6509SOL     H245727   4.119   2.875   1.001  0.5900 -0.8372 -0.1262
 6510SOL    OH245728   2.694   5.509   7.091 -0.0067  0.0904  0.6242
 6510SOL     H145729   2.729   5.423   7.069  2.1587  1.4220 -1.3001
 6510SOL     H245730   2.673   5.548   7.007 -3.6480  0.4206  1.5934
 6511SOL    OH245731   2.871   0.603   7.450  0.0209  0.2415 -0.2395
 6511SOL     H145732   2.849   0.516   7.484  1.1366 -0.2666 -0.7856
 6511SOL     H245733   2.931   0.640   7.515  0.7560 -0.0223 -0.7541
 6512SOL    OH245734   6.398   4.358   2.187 -0.0044 -0.1989  0.5328
 6512SOL     H145735   6.314   4.323   2.217 -0.1887  1.2024  1.6811
 6512SOL     H245736   6.461   4.287   2.203 -0.5761 -0.4558  1.7007
 6513SOL    OH245737   1.985   1.891   0.709  0.1584  0.8038  0.3219
 6513SOL     H145738   1.958   1.972   0.752 -0.8955  0.5044  0.2319
 6513SOL     H245739   1.967   1.822   0.773  0.3492  0.5555  0.1121
 6514SOL    OH245740   1.869   4.919   8.204  0.5041 -0.6990  0.8826
 6514SOL     H145741   1.953   4.966   8.199  0.6016 -0.9779 -0.1549
 6514SOL     H245742   1.804   4.984   8.178  0.7794 -1.5079 -1.9250
 6515SOL    OH245743   6.245   2.849   7.951  0.1904 -0.0995  0.3183
 6515SOL     H145744   6.169   2.842   8.008 -1.4764 -1.0326 -1.9382
 6515SOL     H245745   6.288   2.764   7.957 -0.7358 -0.6616 -0.7988
 6516SOL    OH245746   6.969   6.885   1.303  0.0536 -0.6101 -0.0177
 6516SOL     H145747   7.008   6.960   1.348 -1.1366  0.0219 -0.0127
 6516SOL     H245748   6.875   6.901   1.309 -0.1343 -0.6348 -2.5330
 6517SOL    OH245749   5.468   2.962   7.449  0.2482 -0.4059  0.0365
 6517SOL     H145750   5.480   3.039   7.504  1.6128 -0.4046 -0.2406
 6517SOL     H245751   5.500   2.989   7.363 -2.4424 -0.1984 -0.9588
 6518SOL    OH245752   7.080   4.585   1.586  0.4231 -0.6302 -0.0445
 6518SOL     H145753   7.029   4.572   1.505 -2.0175 -0.1463  1.3603
 6518SOL     H245754   7.050   4.670   1.619  1.0735 -1.0206  1.5863
 6519SOL    OH245755   6.706   5.776   8.134 -0.2782  0.1033 -0.3673
 6519SOL     H145756   6.622   5.758   8.091 -1.1297  0.4316  1.1415
 6519SOL     H245757   6.772   5.752   8.068 -1.4580 -3.5179 -0.3581
 6520SOL    OH245758   4.626   1.402   1.149 -0.2745  0.0706  0.2711
 6520SOL     H145759   4.607   1.469   1.215 -2.2376  0.3258 -0.5094
 6520SOL     H245760   4.542   1.389   1.104  0.4684 -1.7932 -0.6101
 6521SOL    OH245761   5.837   1.418   0.297 -0.4924 -0.1840 -0.8348
 6521SOL     H145762   5.858   1.405   0.205 -1.1559  0.5773 -1.0982
 6521SOL     H245763   5.919   1.450   0.336 -0.2258 -0.4583 -1.1719
 6522SOL    OH245764   5.992   7.249   5.943  0.1064 -0.5901  0.2744
 6522SOL     H145765   5.956   7.177   5.994 -5.3233 -0.1836 -2.5468
 6522SOL     H245766   6.015   7.210   5.859 -1.5050  0.5933 -0.7558
 6523SOL    OH245767   5.610   6.640   7.626 -0.1626  0.3353  0.2552
 6523SOL     H145768   5.659   6.628   7.707  1.2755  1.5680 -0.4010
 6523SOL     H245769   5.638   6.568   7.570 -0.1198  0.2578  0.3762
 6524SOL    OH245770   7.195   7.694   0.951 -0.1340  0.5556  0.5076
 6524SOL     H145771   7.285   7.711   0.922 -0.2129  0.7296  0.3583
 6524SOL     H245772   7.204   7.657   1.039  0.1000  0.2657  0.3625
 6525SOL    OH245773   1.635   3.753   0.621 -0.0898  0.3028  0.0382
 6525SOL     H145774   1.726   3.740   0.595  0.1764  0.0279  1.0923
 6525SOL     H245775   1.585   3.702   0.557  0.6037 -1.0311  0.5306
 6526SOL    OH245776   5.822   6.984   5.929 -0.3458 -0.3218  0.2888
 6526SOL     H145777   5.795   6.958   6.017  0.3775  1.0023  0.9197
 6526SOL     H245778   5.743   7.024   5.890  0.4199  2.9445  1.8912
 6527SOL    OH245779   6.810   3.458   7.135 -0.5078  0.0381 -0.4372
 6527SOL     H145780   6.789   3.510   7.057  0.6470  1.2027  0.0067
 6527SOL     H245781   6.770   3.505   7.207 -2.5047 -1.6202 -0.4254
 6528SOL    OH245782   5.237   2.816   6.054 -0.0742 -0.3588  0.4069
 6528SOL     H145783   5.288   2.736   6.064 -2.0922 -2.0924 -2.4206
 6528SOL     H245784   5.281   2.864   5.984  0.7296  0.7152  1.6227
 6529SOL    OH245785   3.825   6.894   0.251 -0.1349  0.2486  0.0569
 6529SOL     H145786   3.903   6.918   0.300 -0.5001 -0.1293  0.8378
 6529SOL     H245787   3.767   6.971   0.259 -0.2983  0.0868  0.4398
 6530SOL    OH245788   2.401   6.278   6.728  0.3041 -0.4988  0.0238
 6530SOL     H145789   2.373   6.358   6.684  1.4952 -0.1985 -0.1920
 6530SOL     H245790   2.468   6.241   6.671  0.3157 -1.2417  0.5112
 6531SOL    OH245791   2.579   7.920   6.600 -0.0732 -0.4863 -0.6274
 6531SOL     H145792   2.540   8.007   6.607  0.9389  0.1284 -2.1948
 6531SOL     H245793   2.527   7.876   6.532 -0.2545 -0.9109 -0.2105
 6532SOL    OH245794   5.919   7.276   8.292 -0.0081 -0.5229  0.2479
 6532SOL     H145795   5.993   7.262   8.233 -0.8270  0.5861 -1.0747
 6532SOL     H245796   5.843   7.277   8.234 -0.6699  2.1612  1.1192
 6533SOL    OH245797   6.911   0.518   6.812  0.3890  0.1426 -0.5283
 6533SOL     H145798   6.931   0.583   6.880 -0.9666 -0.2826  0.2942
 6533SOL     H245799   6.829   0.547   6.774 -0.8963 -1.7338  0.7048
 6534SOL    OH245800   5.029   2.605   1.527  0.1016  0.4527  0.4225
 6534SOL     H145801   5.114   2.624   1.487  0.2956 -2.1565 -0.5115
 6534SOL     H245802   4.978   2.685   1.513  1.4668  1.0210 -1.6194
 6535SOL    OH245803   0.348   0.497   5.892  0.1456 -0.0029 -0.2582
 6535SOL     H145804   0.356   0.531   5.981 -3.2651 -0.6533  0.3836
 6535SOL     H245805   0.382   0.567   5.836  1.9962  0.5514  1.5360
 6536SOL    OH245806   0.866   6.524   6.913  0.3685 -0.0610 -0.8936
 6536SOL     H145807   0.914   6.584   6.856 -0.7306  1.7506  0.0365
 6536SOL     H245808   0.795   6.576   6.949 -0.1259 -1.6967  0.6179
 6537SOL    OH245809   5.887   4.428   2.148  0.0331 -0.6540 -0.0508
 6537SOL     H145810   5.955   4.392   2.206  1.1713  0.6828 -0.5294
 6537SOL     H245811   5.830   4.479   2.207 -0.1776 -1.2266  0.2477
 6538SOL    OH245812   0.552   1.441   0.484 -0.4797  0.5432  0.0633
 6538SOL     H145813   0.570   1.398   0.567  1.8783  0.5192 -0.4308
 6538SOL     H245814   0.525   1.530   0.508  0.7321  0.7029  0.8243
 6539SOL    OH245815   6.946   4.071   7.085  0.1118 -0.1694 -0.3517
 6539SOL     H145816   6.980   4.051   7.173  0.0012  1.2093  0.0098
 6539SOL     H245817   6.951   3.987   7.039  0.1799 -0.9136  0.9611
 6540SOL    OH245818   6.008   0.248   6.336  0.1170 -0.0990 -0.4976
 6540SOL     H145819   5.951   0.205   6.271  2.4030 -2.3559 -1.0700
 6540SOL     H245820   6.019   0.337   6.302 -1.9825 -0.0067 -1.0470
 6541SOL    OH245821   4.155   2.693   6.280 -0.5082  0.2928 -0.0592
 6541SOL     H145822   4.136   2.747   6.203 -0.9464  0.0960 -0.0900
 6541SOL     H245823   4.112   2.739   6.352 -0.4243  0.2689  0.0067
 6542SOL    OH245824   1.830   2.195   7.003 -0.1573  0.1806  0.3099
 6542SOL     H145825   1.798   2.117   6.958 -1.0804  0.1031  1.0917
 6542SOL     H245826   1.916   2.169   7.037 -0.1796 -0.2787  0.0281
 6543SOL    OH245827   3.419   5.914   7.823  0.2174  0.3836 -0.6190
 6543SOL     H145828   3.348   5.952   7.771  1.3556  0.5250 -2.1084
 6543SOL     H245829   3.458   5.988   7.870 -0.9543  0.2229  0.6137
 6544SOL    OH245830   6.331   2.969   2.413 -0.1975  0.1027 -0.1496
 6544SOL     H145831   6.332   2.893   2.472 -2.5695  0.1379 -0.0028
 6544SOL     H245832   6.319   3.044   2.471 -1.0401  0.2822 -0.5574
 6545SOL    OH245833   2.462   7.570   0.467 -0.3550  0.7637  0.1953
 6545SOL     H145834   2.379   7.547   0.509  0.1947 -1.6880 -0.0184
 6545SOL     H245835   2.491   7.649   0.513 -3.3347  2.3371 -0.4555
 6546SOL    OH245836   0.831   5.796   7.522  0.5493  0.1317 -0.0508
 6546SOL     H145837   0.840   5.722   7.463 -0.6263 -0.1472  0.1067
 6546SOL     H245838   0.785   5.863   7.470 -0.9760 -0.3070  0.6784
 6547SOL    OH245839   4.516   2.749   6.551  0.2336 -0.5067  0.2279
 6547SOL     H145840   4.482   2.698   6.478 -0.4152  0.9038 -0.4566
 6547SOL     H245841   4.439   2.789   6.591  0.7363 -0.1133  0.8178
 6548SOL    OH245842   3.090   4.409   1.749 -0.4780 -0.6738 -0.2895
 6548SOL     H145843   3.071   4.351   1.675 -1.0103 -0.5698 -0.2390
 6548SOL     H245844   3.185   4.408   1.757 -0.5246 -2.2177  0.2584
 6549SOL    OH245845   6.203   3.806   0.711  0.1015  0.2448  0.2789
 6549SOL     H145846   6.129   3.758   0.674 -2.0486  4.5512 -1.3766
 6549SOL     H245847   6.272   3.799   0.646 -0.4800  0.0748 -0.3231
 6550SOL    OH245848   5.585   0.540   0.966 -0.0796  0.2535  0.8026
 6550SOL     H145849   5.511   0.492   1.003  0.1508  0.1689  1.1593
 6550SOL     H245850   5.587   0.622   1.016  1.0818 -0.4426  1.9495
 6551SOL    OH245851   7.129   7.617   2.714 -0.4487  0.4621 -0.0460
 6551SOL     H145852   7.103   7.530   2.685 -0.1077 -0.2529  1.7649
 6551SOL     H245853   7.054   7.673   2.693  0.0589  0.1172 -2.9210
 6552SOL    OH245854   1.316   1.776   1.215  0.0041 -0.1057  0.1414
 6552SOL     H145855   1.379   1.813   1.154 -0.4056 -0.2539 -0.3827
 6552SOL     H245856   1.368   1.738   1.285  0.4078  2.8398  1.5138
 6553SOL    OH245857   6.887   0.179   0.690  0.2666 -0.1503  0.8932
 6553SOL     H145858   6.967   0.232   0.686 -0.5839  1.0155 -3.3895
 6553SOL     H245859   6.914   0.092   0.660  0.0900  0.0283  0.2149
 6554SOL    OH245860   1.369   0.546   0.431 -0.0752 -0.0422  0.5982
 6554SOL     H145861   1.321   0.612   0.381 -1.2005  0.0558  1.7835
 6554SOL     H245862   1.461   0.573   0.423 -0.4935  1.5455  0.8589
 6555SOL    OH245863   4.442   0.868   6.606 -0.1292 -0.0837 -0.6354
 6555SOL     H145864   4.491   0.826   6.535 -1.1703 -1.1476 -0.7224
 6555SOL     H245865   4.510   0.893   6.670  0.6204 -0.7517 -1.1637
 6556SOL    OH245866   3.840   2.906   0.056  0.6297 -0.0711  0.3735
 6556SOL     H145867   3.871   2.991   0.088  0.1786 -0.1519  1.0474
 6556SOL     H245868   3.918   2.850   0.058  1.5324  0.9801 -2.5066
 6557SOL    OH245869   1.952   4.006   1.122 -0.1175  0.2259  0.4430
 6557SOL     H145870   1.935   3.986   1.215  1.1216  0.7372  0.7803
 6557SOL     H245871   1.865   4.005   1.082 -0.7481  0.7285  1.7570
 6558SOL    OH245872   0.351   0.894   6.195  0.4147 -0.1749  0.2223
 6558SOL     H145873   0.345   0.941   6.278 -1.8366  1.4431 -0.8145
 6558SOL     H245874   0.398   0.954   6.137 -0.4053 -0.1842 -0.4520
 6559SOL    OH245875   3.802   1.937   6.670 -0.4742  0.1180 -0.6762
 6559SOL     H145876   3.817   1.844   6.653 -1.7110  0.1734 -2.2607
 6559SOL     H245877   3.736   1.938   6.739  1.0121 -0.1524  0.7735
 6560SOL    OH245878   7.096   0.888   7.008  0.0695  0.4940 -0.1145
 6560SOL     H145879   7.127   0.797   7.011  1.9056  1.1364  1.8653
 6560SOL     H245880   7.047   0.900   7.090 -1.1152  0.9739 -0.8817
 6561SOL    OH245881   0.791   6.424   8.244  0.4320  0.4137  0.1224
 6561SOL     H145882   0.855   6.422   8.173  0.7973 -0.4928  0.4518
 6561SOL     H245883   0.844   6.415   8.324 -0.2179 -2.4880  0.3031
 6562SOL    OH245884   2.990   4.270   0.016 -0.6168 -0.8491 -0.1576
 6562SOL     H145885   2.958   4.180   0.006 -0.7355 -0.6517 -1.7207
 6562SOL     H245886   2.912   4.324   0.006 -0.4468 -0.5458  0.1604
 6563SOL    OH245887   6.790   2.144   2.419 -0.2335  0.0496  0.1809
 6563SOL     H145888   6.852   2.118   2.351 -0.7076 -1.0077  0.1415
 6563SOL     H245889   6.833   2.119   2.501 -0.2159  0.1457  0.2011
 6564SOL    OH245890   6.724   3.885   6.594 -0.1263 -0.8304  0.1049
 6564SOL     H145891   6.629   3.898   6.590 -0.3518 -2.1717  0.8750
 6564SOL     H245892   6.741   3.865   6.686  0.9907  0.0493  0.0912
 6565SOL    OH245893   1.862   5.644   0.087  0.1015 -0.6678  0.9885
 6565SOL     H145894   1.807   5.710   0.045 -0.0317 -0.9013  0.7939
 6565SOL     H245895   1.951   5.670   0.065 -0.0117 -1.5655 -0.6236
 6566SOL    OH245896   0.986   5.531   0.741  0.0202  0.1709 -0.3896
 6566SOL     H145897   1.029   5.450   0.770  0.4675  0.8240  0.8081
 6566SOL     H245898   0.892   5.513   0.752  0.0352 -0.7160 -1.5709
 6567SOL    OH245899   7.251   2.168   7.091 -0.3726  0.2325 -0.3072
 6567SOL     H145900   7.170   2.211   7.065 -0.5511  0.3256  0.4078
 6567SOL     H245901   7.231   2.125   7.173  0.8943  2.0742  1.0246
 6568SOL    OH245902   2.551   7.497   2.290  0.5035  0.2839  0.4531
 6568SOL     H145903   2.476   7.481   2.347  1.2449 -0.1387  1.3186
 6568SOL     H245904   2.552   7.423   2.229 -1.0179  1.3519 -0.9340
 6569SOL    OH245905   1.224   2.276   1.492  0.0118  0.1308 -0.5694
 6569SOL     H145906   1.132   2.250   1.504  0.1121 -0.3341 -0.8004
 6569SOL     H245907   1.226   2.311   1.403  0.6306 -2.3882 -1.5837
 6570SOL    OH245908   1.621   0.624   0.430  0.3461 -0.3854 -0.6284
 6570SOL     H145909   1.643   0.708   0.471 -2.9637  0.2495 -0.0224
 6570SOL     H245910   1.696   0.567   0.451  1.3970  1.6145  1.2682
 6571SOL    OH245911   2.620   1.436   7.798  0.3103  0.1651 -0.4229
 6571SOL     H145912   2.630   1.410   7.889  0.2581  0.7922 -0.2399
 6571SOL     H245913   2.551   1.502   7.799  0.6164  0.4915 -0.8607
 6572SOL    OH245914   5.053   7.159   1.501 -0.0189  0.5758 -0.0726
 6572SOL     H145915   5.128   7.196   1.455  1.2154  0.3668  1.7073
 6572SOL     H245916   5.091   7.117   1.578 -1.3242 -4.3330 -1.8641
 6573SOL    OH245917   4.182   3.650   0.294  0.0504  0.4725 -0.3236
 6573SOL     H145918   4.199   3.640   0.201 -0.4345 -2.9449 -0.1042
 6573SOL     H245919   4.100   3.700   0.298 -0.5566 -0.3710 -1.7625
 6574SOL    OH245920   1.223   6.002   6.006  0.1065 -0.2459 -0.0233
 6574SOL     H145921   1.243   6.080   6.057 -1.8312 -0.6200  1.3651
 6574SOL     H245922   1.257   6.020   5.918  1.0814  1.4963  0.7088
 6575SOL    OH245923   3.355   1.483   1.125  0.0338  0.0728  0.7751
 6575SOL     H145924   3.286   1.424   1.155 -0.5135  0.0021 -0.6187
 6575SOL     H245925   3.351   1.479   1.030  1.3855  0.7468  0.6769
 6576SOL    OH245926   3.343   0.981   1.525  0.1913  0.6302  0.1994
 6576SOL     H145927   3.428   0.982   1.569  1.0355 -0.3370 -1.3793
 6576SOL     H245928   3.356   1.035   1.447 -0.3507 -0.3050 -0.5517
 6577SOL    OH245929   3.582   7.668   1.453  0.1961 -0.3045 -0.5960
 6577SOL     H145930   3.626   7.619   1.383  0.3672 -1.0925  0.0593
 6577SOL     H245931   3.620   7.756   1.448  1.8560 -0.9704 -0.0384
 6578SOL    OH245932   4.384   2.806   0.800  0.5352 -0.5524 -0.0079
 6578SOL     H145933   4.414   2.785   0.712 -0.2029 -0.1640 -0.3522
 6578SOL     H245934   4.460   2.846   0.842  0.1241  1.6913 -1.3141
 6579SOL    OH245935   6.990   6.414   7.067  0.6711  0.2916  0.4295
 6579SOL     H145936   6.958   6.496   7.030 -0.1032  0.7269  2.0072
 6579SOL     H245937   6.932   6.346   7.031  1.9596  0.2729 -1.7003
 6580SOL    OH245938   0.697   7.614   6.835  0.2826  0.0822 -0.5753
 6580SOL     H145939   0.782   7.652   6.812  0.2028  0.8402  0.3220
 6580SOL     H245940   0.634   7.682   6.812 -0.3467 -1.4836 -3.6952
 6581SOL    OH245941   2.009   5.159   1.969  0.5615  0.4381  0.2095
 6581SOL     H145942   2.075   5.103   1.928  0.0347 -0.6635  0.8301
 6581SOL     H245943   2.039   5.167   2.060 -1.4510 -2.1658  1.1661
 6582SOL    OH245944   7.533   2.303   6.457  0.0753 -0.0401 -0.2974
 6582SOL     H145945   7.612   2.306   6.403  0.5462 -0.9351  0.3323
 6582SOL     H245946   7.484   2.228   6.423 -0.8533  0.9218 -1.1420
 6583SOL    OH245947   3.276   5.609   5.666 -0.3280  0.0023  0.4141
 6583SOL     H145948   3.203   5.663   5.635  0.2152  0.7112  0.3578
 6583SOL     H245949   3.246   5.519   5.655 -0.4638  0.2548 -1.3855
 6584SOL    OH245950   4.355   5.061   7.798  0.5877 -0.5598  0.0057
 6584SOL     H145951   4.387   5.136   7.747  0.8212  0.2758  1.3610
 6584SOL     H245952   4.279   5.029   7.749  0.5208  0.5330 -0.6167
 6585SOL    OH245953   4.684   3.599   0.908  0.0533 -0.6736  0.6748
 6585SOL     H145954   4.632   3.520   0.927 -0.9435 -0.1138  0.3259
 6585SOL     H245955   4.693   3.599   0.813  0.0782 -0.3860  0.6768
 6586SOL    OH245956   3.235   4.571   7.337  0.1123  0.2708  0.1337
 6586SOL     H145957   3.261   4.662   7.355 -0.1651  0.1506  1.1741
 6586SOL     H245958   3.219   4.533   7.423  0.8069 -0.9483 -0.2664
 6587SOL    OH245959   2.450   6.319   1.734  0.4797  0.3658 -0.4959
 6587SOL     H145960   2.451   6.298   1.641 -0.8999 -0.5331 -0.3208
 6587SOL     H245961   2.455   6.233   1.778  0.3692  0.7380  0.2566
 6588SOL    OH245962   3.179   1.241   1.094  0.0750 -0.7300 -0.1507
 6588SOL     H145963   3.093   1.260   1.131 -0.3604 -0.7629 -1.1373
 6588SOL     H245964   3.164   1.172   1.030  0.5344  0.4550 -1.5842
 6589SOL    OH245965   0.804   5.259   7.682 -0.0829  0.4550 -0.1397
 6589SOL     H145966   0.859   5.182   7.669 -0.3783  0.3405 -0.7004
 6589SOL     H245967   0.860   5.333   7.658  0.6639  0.5330  1.7162
 6590SOL    OH245968   7.761   1.647   7.139  1.1338  0.2576 -0.0556
 6590SOL     H145969   7.789   1.632   7.048  1.6722  1.6567 -0.1345
 6590SOL     H245970   7.669   1.670   7.133  1.0571 -0.0764 -0.1987
 6591SOL    OH245971   0.061   5.648   0.582 -0.2731 -0.2206  0.5036
 6591SOL     H145972  -0.016   5.674   0.532  1.2757  0.4654 -1.6426
 6591SOL     H245973   0.034   5.654   0.674 -2.7337  0.0376 -0.2044
 6592SOL    OH245974   1.459   4.867   6.747 -0.4936  0.0563  0.0278
 6592SOL     H145975   1.491   4.900   6.663  1.4365  1.9525  1.4444
 6592SOL     H245976   1.508   4.785   6.760 -0.3996  0.0325 -0.4603
 6593SOL    OH245977   0.949   0.372   0.356 -0.5156  0.0739 -0.1396
 6593SOL     H145978   0.978   0.289   0.318 -1.0662  0.3308 -1.1380
 6593SOL     H245979   1.006   0.384   0.433  0.7112 -0.3801 -0.9578
 6594SOL    OH245980   0.432   6.099   0.899 -0.4592  0.3067  0.0711
 6594SOL     H145981   0.392   6.167   0.844 -1.2712 -0.3309 -0.1342
 6594SOL     H245982   0.358   6.054   0.939  0.0880 -0.2423  0.4784
 6595SOL    OH245983   2.194   2.353   6.303 -0.0914  0.1686 -0.0461
 6595SOL     H145984   2.284   2.343   6.334 -0.1989 -1.9292 -0.3653
 6595SOL     H245985   2.191   2.443   6.270  1.4106  0.8217  1.4657
 6596SOL    OH245986   1.747   3.033   1.215 -0.2714  0.0064  0.2501
 6596SOL     H145987   1.777   3.111   1.169 -0.5780  0.0525  0.1252
 6596SOL     H245988   1.786   3.039   1.302 -1.8407  1.2772  0.8880
 6597SOL    OH245989   5.552   2.525   5.813  0.2262 -0.4620  0.6552
 6597SOL     H145990   5.571   2.612   5.777  2.8448 -1.3626 -0.2236
 6597SOL     H245991   5.540   2.470   5.735  1.1622 -1.4296  1.1934
 6598SOL    OH245992   4.772   4.435   0.180 -0.6298 -0.6096 -0.1949
 6598SOL     H145993   4.829   4.358   0.181  1.2169  0.7072  1.6290
 6598SOL     H245994   4.817   4.497   0.122  0.0785  0.6083  1.6097
 6599SOL    OH245995   0.430   6.179   5.784 -0.5355 -0.1094 -0.2768
 6599SOL     H145996   0.361   6.221   5.836  0.0531  1.5072 -0.7455
 6599SOL     H245997   0.510   6.193   5.834 -0.4399 -1.4168 -0.0483
 6600SOL    OH245998   6.263   0.193   6.629  0.0180  0.2965  0.0206
 6600SOL     H145999   6.271   0.101   6.605 -1.0028  0.1823  0.0925
 6600SOL     H246000   6.347   0.232   6.605 -0.2775 -0.2149 -1.9387
 6601SOL    OH246001   2.828   6.498   7.053 -0.3642  0.2235  0.4372
 6601SOL     H146002   2.881   6.512   6.975  1.1391 -1.9800  1.0056
 6601SOL     H246003   2.859   6.563   7.116 -0.5974  1.0750 -0.3309
 6602SOL    OH246004   2.629   7.581   7.148 -0.4347 -0.3138  0.4206
 6602SOL     H146005   2.562   7.553   7.209 -1.0925  1.5528  0.5754
 6602SOL     H246006   2.672   7.655   7.191  0.4101 -0.2374 -0.5260
 6603SOL    OH246007   5.813   5.810   6.629  0.1282 -0.6278 -0.2812
 6603SOL     H146008   5.822   5.846   6.717  1.1972  1.0613 -1.0492
 6603SOL     H246009   5.881   5.742   6.624 -1.3634 -2.2337  0.9050
 6604SOL    OH246010   6.387   2.671   1.842 -0.3991 -0.7185  0.3766
 6604SOL     H146011   6.299   2.688   1.876 -0.0759 -0.4876  1.0924
 6604SOL     H246012   6.371   2.632   1.756 -1.1936  0.7183 -0.1611
 6605SOL    OH246013   0.052   1.323   6.942  0.1359  0.2552 -0.1688
 6605SOL     H146014   0.058   1.361   7.029 -0.1344  0.2020 -0.1247
 6605SOL     H246015   0.015   1.393   6.888 -1.5835 -0.3560  0.1898
 6606SOL    OH246016   4.058   4.738   1.934 -0.0052 -0.3707 -0.6431
 6606SOL     H146017   4.124   4.807   1.941  0.5494 -1.0573  1.0174
 6606SOL     H246018   4.103   4.659   1.965 -1.7280 -0.7590  0.9231
 6607SOL    OH246019   2.680   0.817   7.439 -0.3858 -0.2001  0.0127
 6607SOL     H146020   2.704   0.903   7.474 -0.5188  0.7451 -2.1300
 6607SOL     H246021   2.756   0.762   7.455  1.1600  1.3214 -1.8796
 6608SOL    OH246022   7.522   0.241   1.419  0.6037 -0.1952  0.6256
 6608SOL     H146023   7.447   0.264   1.364  0.2368  0.4692  1.3938
 6608SOL     H246024   7.489   0.173   1.477  0.5121  0.2730  1.1317
 6609SOL    OH246025   0.219   2.680   0.939 -0.6338 -0.2819  0.1824
 6609SOL     H146026   0.248   2.645   0.855 -2.8850 -0.6121 -0.5134
 6609SOL     H246027   0.292   2.733   0.971  0.5051 -0.7245 -1.6449
 6610SOL    OH246028   1.496   1.799   5.977 -0.4678  0.1598  0.3211
 6610SOL     H146029   1.572   1.774   6.028  0.5313 -1.2721 -1.7962
 6610SOL     H246030   1.515   1.888   5.948 -0.1267  0.2261  0.7441
 6611SOL    OH246031   2.700   5.546   0.063 -0.0348  0.5052 -0.0496
 6611SOL     H146032   2.687   5.485   0.136 -1.3136 -0.1443 -0.8094
 6611SOL     H246033   2.622   5.602   0.065 -1.0011 -0.7390 -2.0945
 6612SOL    OH246034   0.751   6.689   5.340 -0.0792 -0.7240 -0.0186
 6612SOL     H146035   0.730   6.744   5.265 -0.7837 -1.8325 -0.6286
 6612SOL     H246036   0.666   6.661   5.375  0.2726 -1.2428  0.4352
 6613SOL    OH246037   4.732   6.778   1.760 -0.1923 -0.3438 -0.4111
 6613SOL     H146038   4.690   6.825   1.689  1.5568 -0.0019 -1.2615
 6613SOL     H246039   4.754   6.692   1.723 -1.1348 -0.9339  0.3659
 6614SOL    OH246040   4.265   0.995   6.454  0.3830  0.0353  0.6509
 6614SOL     H146041   4.316   0.977   6.534 -0.9721  0.7275  1.6848
 6614SOL     H246042   4.305   0.939   6.388  2.5449  0.6177  1.4226
 6615SOL    OH246043   7.279   0.091   0.458  0.3618 -0.2040 -0.4805
 6615SOL     H146044   7.224   0.165   0.431  2.4030  1.3192 -0.6686
 6615SOL     H246045   7.224   0.039   0.516 -0.3525  2.8799  1.7333
 6616SOL    OH246046   3.085   1.854   5.439 -0.1609 -0.0415 -0.4341
 6616SOL     H146047   3.083   1.843   5.534 -1.6220  0.2983 -0.4135
 6616SOL     H246048   2.997   1.827   5.411  0.5485 -0.9842 -1.7803
 6617SOL    OH246049   5.028   2.998   1.664 -0.0566  0.0539  0.0694
 6617SOL     H146050   5.023   2.922   1.606  1.4048  0.2525 -0.3398
 6617SOL     H246051   4.974   2.975   1.739  1.1479 -1.7857  0.3827
 6618SOL    OH246052   0.548   3.298   7.990 -0.2857 -0.3589 -0.2622
 6618SOL     H146053   0.589   3.317   8.074  0.0928 -1.8208 -0.1150
 6618SOL     H246054   0.511   3.211   7.999 -3.8118  1.0226 -0.2499
 6619SOL    OH246055  -0.016   0.857   0.677 -0.3488 -0.3152  0.3481
 6619SOL     H146056  -0.007   0.952   0.673 -0.1076 -0.3693 -0.5797
 6619SOL     H246057   0.074   0.825   0.684 -0.4664 -0.4552  1.3236
 6620SOL    OH246058   0.059   7.215   7.447  0.4230  0.2498 -0.6991
 6620SOL     H146059   0.121   7.287   7.435 -0.8718  1.1688 -2.0480
 6620SOL     H246060   0.020   7.203   7.361 -0.4093 -1.1229 -0.1416
 6621SOL    OH246061   3.234   0.120   1.333  0.2553 -0.7155 -0.0940
 6621SOL     H146062   3.301   0.103   1.400  1.8133  1.3367 -1.0865
 6621SOL     H246063   3.190   0.200   1.363  1.0274  0.2714 -1.5740
 6622SOL    OH246064   4.740   1.982   6.918  0.1841  0.6754 -0.5589
 6622SOL     H146065   4.761   2.071   6.890  1.2273  0.7653  0.4850
 6622SOL     H246066   4.824   1.946   6.947 -0.0289 -1.0084 -1.9723
 6623SOL    OH246067   6.538   4.577   0.336 -0.4109  0.4570  0.6915
 6623SOL     H146068   6.494   4.511   0.283 -0.4011  0.9286  0.0839
 6623SOL     H246069   6.629   4.547   0.343  0.2491  1.7785 -1.8805
 6624SOL    OH246070   0.134   6.154   0.096 -0.2175  0.3426 -0.0234
 6624SOL     H146071   0.115   6.247   0.080 -2.1686 -0.3761 -2.2344
 6624SOL     H246072   0.218   6.154   0.142  0.9035  3.1303 -1.9185
 6625SOL    OH246073   0.766   4.677   0.819 -0.1177 -0.3473 -0.1463
 6625SOL     H146074   0.682   4.721   0.804  0.5070 -0.2589 -3.9190
 6625SOL     H246075   0.831   4.748   0.817  0.5255 -0.9709 -2.5295
 6626SOL    OH246076   7.776   5.671   0.465 -0.2469  0.7880  0.4933
 6626SOL     H146077   7.730   5.753   0.482 -1.3829  0.3017 -0.1991
 6626SOL     H246078   7.711   5.615   0.424  1.0616  0.2282 -0.8744
 6627SOL    OH246079   5.175   6.984   1.172  0.1183  0.1882  0.4362
 6627SOL     H146080   5.119   6.906   1.176 -2.0433  1.6700  0.3077
 6627SOL     H246081   5.213   6.981   1.085 -2.1128  0.6914 -0.5795
 6628SOL    OH246082   4.569   5.000   6.856 -0.3100  0.0528  0.1015
 6628SOL     H146083   4.637   4.934   6.868  0.1135  0.4646 -0.0181
 6628SOL     H246084   4.613   5.083   6.874 -0.8832  0.2923  0.4251
 6629SOL    OH246085   4.781   7.703   7.268  0.6088  0.3743 -0.7390
 6629SOL     H146086   4.797   7.610   7.248 -0.7308  0.5526 -2.8608
 6629SOL     H246087   4.864   7.746   7.251  1.1926 -0.4026  0.0772
 6630SOL    OH246088   1.408   0.866   7.010  0.1307 -0.2096 -0.1432
 6630SOL     H146089   1.389   0.779   6.974 -0.7731  0.4625 -1.3045
 6630SOL     H246090   1.435   0.849   7.100  0.4864 -1.7456 -0.5299
 6631SOL    OH246091   3.250   5.726   7.920  0.1267 -0.1132  0.1107
 6631SOL     H146092   3.297   5.790   7.867  1.0877  0.4269  1.5749
 6631SOL     H246093   3.203   5.779   7.985 -1.8745 -0.6904 -0.8320
 6632SOL    OH246094   3.646   4.863   0.345 -0.2383  0.1914 -0.4143
 6632SOL     H146095   3.691   4.836   0.425  0.6219 -1.5495 -1.4759
 6632SOL     H246096   3.553   4.857   0.367 -0.0079  0.7833  0.7818
 6633SOL    OH246097   0.566   6.194   2.054 -0.0586 -0.3137 -0.4693
 6633SOL     H146098   0.581   6.128   1.987 -0.2831 -0.2072 -0.6227
 6633SOL     H246099   0.496   6.159   2.108  0.3654 -0.5619 -0.0777
 6634SOL    OH246100   4.798   3.051   8.092  0.2688  0.5236  0.0565
 6634SOL     H146101   4.859   3.007   8.151  0.1425 -0.2325 -0.3726
 6634SOL     H246102   4.774   3.131   8.138  1.4778  0.7664  0.2952
 6635SOL    OH246103   2.540   5.646   6.305  0.0797  0.1512 -0.3192
 6635SOL     H146104   2.576   5.666   6.391 -0.8961  0.7444 -0.0463
 6635SOL     H246105   2.450   5.677   6.308  0.5652  1.8707 -2.1637
 6636SOL    OH246106   1.492   0.606   7.937  0.1680 -0.1735 -0.1467
 6636SOL     H146107   1.571   0.571   7.978  0.3412 -0.6301 -0.8616
 6636SOL     H246108   1.423   0.588   8.000  0.6902  0.5717  0.6579
 6637SOL    OH246109   1.006   1.038   7.914 -0.1280  0.2370 -0.4278
 6637SOL     H146110   0.934   1.089   7.876 -0.1745  0.1054 -0.5164
 6637SOL     H246111   0.966   0.956   7.941  0.2231 -0.3275 -1.5831
 6638SOL    OH246112   4.689   1.458   1.547 -0.5378 -0.1107 -0.5789
 6638SOL     H146113   4.643   1.407   1.614  0.4614  0.4063  0.5228
 6638SOL     H246114   4.705   1.542   1.589  1.5052 -0.3256 -0.8993
 6639SOL    OH246115   1.753   2.676   1.332  0.0115  0.6673 -0.0471
 6639SOL     H146116   1.789   2.603   1.282 -0.1651 -0.1479  0.9908
 6639SOL     H246117   1.817   2.691   1.402 -1.7857 -1.0551  2.0527
 6640SOL    OH246118   2.553   2.323   6.926 -0.1970  0.0082 -0.3543
 6640SOL     H146119   2.483   2.374   6.966  0.1395  1.6765 -1.8377
 6640SOL     H246120   2.574   2.256   6.991 -1.8531  0.6653  0.8893
 6641SOL    OH246121   7.507   0.418   5.963  0.3903  0.4369 -0.1836
 6641SOL     H146122   7.528   0.488   6.026 -0.6928  0.4550  0.1697
 6641SOL     H246123   7.431   0.374   6.001  0.3827 -0.2245 -0.9630
 6642SOL    OH246124   2.406   1.816   6.190 -0.7602  0.3546  0.2971
 6642SOL     H146125   2.446   1.817   6.103 -0.8905  0.5976  0.2407
 6642SOL     H246126   2.313   1.831   6.174 -1.0252 -1.1113  0.3521
 6643SOL    OH246127   3.840   2.900   6.095  0.8763 -0.1104  0.2654
 6643SOL     H146128   3.935   2.899   6.086  0.9564 -0.2663  1.0188
 6643SOL     H246129   3.809   2.957   6.025  1.8519  3.6654  2.7638
 6644SOL    OH246130   6.560   4.082   1.147 -0.1411  0.5014  0.5634
 6644SOL     H146131   6.618   4.119   1.081 -1.0684  0.7935 -0.1087
 6644SOL     H246132   6.609   4.009   1.184 -0.0526 -0.4553 -1.3340
 6645SOL    OH246133   5.581   3.438   7.460 -0.4425  0.2366  0.1929
 6645SOL     H146134   5.517   3.382   7.416 -1.4080  0.6579  1.0456
 6645SOL     H246135   5.653   3.378   7.482 -0.8780 -0.4036 -0.0930
 6646SOL    OH246136   4.828   1.230   0.787  0.2113 -0.3829 -0.2995
 6646SOL     H146137   4.793   1.309   0.828  0.2691 -0.5080 -0.0113
 6646SOL     H246138   4.768   1.160   0.813 -0.2701 -0.3018 -1.1800
 6647SOL    OH246139   3.929   3.851   2.106 -0.4240 -0.4976 -0.0187
 6647SOL     H146140   3.864   3.782   2.122 -0.9321  0.2334  1.0744
 6647SOL     H246141   4.012   3.804   2.098 -0.6431 -1.1660  1.5814
 6648SOL    OH246142   7.068   0.601   7.594 -0.1362 -0.0350  0.0853
 6648SOL     H146143   7.123   0.676   7.569  0.4102 -0.6336 -0.5206
 6648SOL     H246144   6.983   0.620   7.553  0.2184 -0.1051 -0.6967
 6649SOL    OH246145   7.348   4.928   0.324  0.2813 -0.0973  0.0695
 6649SOL     H146146   7.439   4.944   0.301  0.9650 -1.2577  1.9518
 6649SOL     H246147   7.303   5.009   0.300  2.2329  1.4559  1.5577
 6650SOL    OH246148   7.939   4.499   7.798 -0.4252 -0.2575 -0.6822
 6650SOL     H146149   7.950   4.535   7.886 -2.5469 -1.1166 -0.0481
 6650SOL     H246150   7.886   4.564   7.752 -1.8780 -1.2228 -0.3897
 6651SOL    OH246151   0.610   0.549   6.635 -0.0636 -0.0712 -0.2319
 6651SOL     H146152   0.561   0.592   6.565  1.2051  0.8064 -0.5964
 6651SOL     H246153   0.698   0.539   6.600  0.4573 -0.0832  1.0573
 6652SOL    OH246154   0.685   5.365   5.668  0.0364  0.0359 -0.2808
 6652SOL     H146155   0.756   5.382   5.606 -1.1304  1.1190 -1.3274
 6652SOL     H246156   0.610   5.411   5.632 -0.6097  0.8472  2.0583
 6653SOL    OH246157   3.175   2.680   7.406  0.4595 -0.5031  0.5681
 6653SOL     H146158   3.142   2.719   7.324  0.1490  1.0064  1.3919
 6653SOL     H246159   3.224   2.603   7.377 -0.5682 -0.6187 -0.9680
 6654SOL    OH246160   4.971   5.633   8.192  0.5001 -0.0092  0.4824
 6654SOL     H146161   5.051   5.649   8.243  0.4425 -2.3537  1.3550
 6654SOL     H246162   4.902   5.680   8.240  0.3840 -2.4675  2.8216
 6655SOL    OH246163   7.419   7.650   0.419  0.6701  0.1911  0.0934
 6655SOL     H146164   7.424   7.702   0.339  0.5465  0.9963  0.6062
 6655SOL     H246165   7.331   7.612   0.417  0.0787  1.5024  0.6397
 6656SOL    OH246166   0.355   6.829   2.632 -0.0342  0.0446 -0.1719
 6656SOL     H146167   0.450   6.834   2.643  0.0112  0.2806 -0.6513
 6656SOL     H246168   0.327   6.919   2.618 -0.2389 -0.0997 -0.7167
 6657SOL    OH246169   7.213   4.292   1.513 -0.5629 -0.1017 -0.5116
 6657SOL     H146170   7.137   4.316   1.459 -0.2842  1.4392 -0.2462
 6657SOL     H246171   7.253   4.376   1.536  0.0462 -0.8088  1.0655
 6658SOL    OH246172   1.823   0.744   2.243 -0.1048  0.2105  0.1486
 6658SOL     H146173   1.776   0.800   2.181  0.5243  0.6745  0.0912
 6658SOL     H246174   1.777   0.660   2.238 -0.1530  0.2879 -0.8427
 6659SOL    OH246175   0.890   7.792   6.822  0.4673  0.7897 -0.3118
 6659SOL     H146176   0.976   7.812   6.860  0.6800 -2.3399  1.0479
 6659SOL     H246177   0.828   7.825   6.887  0.6714  1.3018 -0.3692
 6660SOL    OH246178   4.787   0.770   6.281  0.0740  0.6153 -0.1984
 6660SOL     H146179   4.805   0.703   6.215  1.8525  1.3789 -0.5054
 6660SOL     H246180   4.844   0.748   6.354  0.6757  1.7940 -0.3079
 6661SOL    OH246181   4.088   3.300   1.151  0.2912 -0.9233  0.2317
 6661SOL     H146182   4.107   3.301   1.245  0.4812  1.9507  0.2084
 6661SOL     H246183   4.135   3.377   1.116 -1.6325 -0.6200 -1.8174
 6662SOL    OH246184   0.303   5.279   6.913  0.1204 -0.1202  0.8674
 6662SOL     H146185   0.337   5.368   6.912  1.2166 -0.5277 -0.2234
 6662SOL     H246186   0.380   5.224   6.895 -1.0351 -1.0817 -1.4508
 6663SOL    OH246187   4.236   6.395   1.566 -0.0426 -0.2453 -0.2595
 6663SOL     H146188   4.307   6.401   1.502 -0.5634 -0.4680 -0.8537
 6663SOL     H246189   4.225   6.301   1.581  1.0390 -0.1566  1.2301
 6664SOL    OH246190   3.800   7.892   0.184  0.0157  0.2274 -0.0019
 6664SOL     H146191   3.856   7.967   0.164 -1.1409  0.6917 -1.5765
 6664SOL     H246192   3.740   7.923   0.251  1.8769 -0.3967  2.0101
 6665SOL    OH246193   3.514   7.353   0.228 -0.3544 -0.2964 -0.2773
 6665SOL     H146194   3.586   7.416   0.233 -0.8256  0.2802 -0.6481
 6665SOL     H246195   3.447   7.388   0.287 -0.8365 -0.1619 -0.8999
 6666SOL    OH246196   3.075   5.354   0.396  0.4665 -0.5166  0.3627
 6666SOL     H146197   2.998   5.303   0.371  0.5414 -1.1058  1.2758
 6666SOL     H246198   3.092   5.411   0.321  0.2034 -1.6325 -0.5573
 6667SOL    OH246199   6.198   6.676   1.842  0.1206  0.3063 -1.0156
 6667SOL     H146200   6.166   6.651   1.756 -1.7394 -2.3369  0.3688
 6667SOL     H246201   6.270   6.615   1.860 -1.1466 -0.8379  0.3034
 6668SOL    OH246202   5.794   5.444   0.503  0.1589 -0.3670  0.2948
 6668SOL     H146203   5.726   5.490   0.552 -0.6134 -1.1034 -0.0521
 6668SOL     H246204   5.751   5.363   0.474  1.1120 -0.7217 -0.1505
 6669SOL    OH246205   1.312   3.473   6.153 -0.1323 -0.2457  0.3782
 6669SOL     H146206   1.325   3.491   6.246 -0.6282 -1.8208  0.7618
 6669SOL     H246207   1.360   3.392   6.137 -0.6534 -0.3707 -0.5734
 6670SOL    OH246208   4.169   5.002   0.490 -0.0992 -0.4431 -0.7720
 6670SOL     H146209   4.125   5.052   0.421  0.7426  1.8432  0.2918
 6670SOL     H246210   4.257   4.985   0.455 -0.4103 -1.2454 -1.1642
 6671SOL    OH246211   2.132   6.055   7.359  0.0599 -0.4206 -0.2891
 6671SOL     H146212   2.112   6.141   7.323  1.2701 -1.1748 -2.8898
 6671SOL     H246213   2.056   6.001   7.336  0.2470 -0.5806 -0.5310
 6672SOL    OH246214   3.460   6.624   7.480 -0.4070  0.4984  0.6128
 6672SOL     H146215   3.542   6.613   7.432  0.3358  0.5158  1.8472
 6672SOL     H246216   3.423   6.536   7.485 -0.5787  0.5257 -0.1433
 6673SOL    OH246217   2.169   5.194   0.682  0.2763  0.2421  0.0410
 6673SOL     H146218   2.146   5.218   0.593 -1.5950 -0.5796  0.2978
 6673SOL     H246219   2.210   5.108   0.675  0.4238  0.3184 -0.0434
 6674SOL    OH246220   2.163   1.444   0.566  0.1321  0.5751 -0.3035
 6674SOL     H146221   2.203   1.375   0.513  0.5901  1.1707 -0.7534
 6674SOL     H246222   2.095   1.481   0.510  0.8786  1.4700 -0.6462
 6675SOL    OH246223   4.172   7.547   1.359  0.1005  0.1229 -0.0307
 6675SOL     H146224   4.085   7.533   1.324 -0.1071  1.7551 -0.2275
 6675SOL     H246225   4.226   7.479   1.320 -1.2240 -1.3322  0.6413
 6676SOL    OH246226   7.061   6.452   7.694  0.5526  0.5497  0.2064
 6676SOL     H146227   6.990   6.489   7.746  2.2088  3.7046  0.3244
 6676SOL     H246228   7.060   6.502   7.612  0.1069 -2.1302 -1.5249
 6677SOL    OH246229   1.049   4.007   1.353  0.7506  0.7483  0.2557
 6677SOL     H146230   0.990   3.932   1.347  1.1108  0.3979  1.0208
 6677SOL     H246231   1.134   3.969   1.375  0.8630  1.4043  0.9871
 6678SOL    OH246232   6.262   3.604   6.988 -0.0041 -0.6515  0.1691
 6678SOL     H146233   6.229   3.581   7.074 -1.7932  0.7120 -0.1283
 6678SOL     H246234   6.263   3.700   6.987 -0.9607 -0.6293 -1.6668
 6679SOL    OH246235   3.673   7.488   1.221 -0.0206 -0.3775  0.3982
 6679SOL     H146236   3.649   7.509   1.131  2.0977  0.5043  0.0266
 6679SOL     H246237   3.621   7.411   1.242 -2.8772  1.2084 -0.5201
 6680SOL    OH246238   5.635   1.204   0.877  0.0607  0.2688 -0.4060
 6680SOL     H146239   5.689   1.263   0.930 -1.5451  0.5783  0.9289
 6680SOL     H246240   5.654   1.116   0.911  0.6259  0.2550 -0.7539
 6681SOL    OH246241   3.181   4.244   7.870  0.0328  0.4850  0.1089
 6681SOL     H146242   3.145   4.329   7.896  2.6794  1.2742  1.3453
 6681SOL     H246243   3.183   4.247   7.774  0.4964  2.0060  0.1506
 6682SOL    OH246244   6.626   6.862   7.568 -0.2514  0.8185  0.2237
 6682SOL     H146245   6.533   6.854   7.593 -0.1109 -1.3992  0.1125
 6682SOL     H246246   6.624   6.896   7.479 -0.8924  2.7943  0.9589
 6683SOL    OH246247   5.175   5.968   2.607 -0.3260 -0.2302  0.1827
 6683SOL     H146248   5.231   6.038   2.572  0.8281 -0.6048  1.2255
 6683SOL     H246249   5.097   6.012   2.640  0.6244  0.6368  1.3065
 6684SOL    OH246250   6.779   2.227   1.631 -0.1826 -0.2201 -0.2832
 6684SOL     H146251   6.831   2.197   1.706  0.7182  1.7156 -0.1202
 6684SOL     H246252   6.825   2.190   1.555 -0.2241 -0.9005  0.0133
 6685SOL    OH246253   0.614   6.654   6.631  0.1916 -0.4369 -0.2498
 6685SOL     H146254   0.567   6.604   6.698 -0.0157 -0.7054 -0.5958
 6685SOL     H246255   0.557   6.651   6.554  0.5067 -0.2657 -0.4898
 6686SOL    OH246256   7.377   2.278   7.985  0.2151 -0.0404  0.4910
 6686SOL     H146257   7.387   2.356   8.039  1.3735  0.5331 -0.5145
 6686SOL     H246258   7.284   2.275   7.965  0.2119  1.3052  0.2389
 6687SOL    OH246259   2.228   6.518   5.812 -0.0465 -0.5726  0.0775
 6687SOL     H146260   2.210   6.576   5.739  1.2493 -1.6258 -1.1198
 6687SOL     H246261   2.193   6.433   5.785 -1.8431 -0.4068  1.7622
 6688SOL    OH246262   0.578   3.119   0.625 -0.3072 -0.4117 -0.1836
 6688SOL     H146263   0.671   3.141   0.633 -0.5039  0.1442  0.7439
 6688SOL     H246264   0.533   3.203   0.633 -0.9070 -0.7390 -0.1021
 6689SOL    OH246265   2.412   2.873   0.622  0.3792 -0.6442 -0.1398
 6689SOL     H146266   2.468   2.892   0.546  0.4101 -0.7123 -0.1342
 6689SOL     H246267   2.326   2.855   0.584  0.0829  0.5802 -0.0708
 6690SOL    OH246268   4.229   7.869   8.012  0.0282  0.1768 -0.0341
 6690SOL     H146269   4.198   7.816   8.085 -0.8923 -0.1436 -0.6589
 6690SOL     H246270   4.276   7.807   7.956 -0.2869  0.1884 -0.3137
 6691SOL    OH246271   3.246   6.099   6.609 -0.3955 -0.2356 -0.0453
 6691SOL     H146272   3.255   6.109   6.703 -0.9227  0.0425 -0.0221
 6691SOL     H246273   3.327   6.135   6.573  0.3433 -1.4634  0.3608
 6692SOL    OH246274   2.841   2.219   8.164 -0.0407  0.2890 -0.2053
 6692SOL     H146275   2.930   2.194   8.138 -0.1833 -1.6803  1.0419
 6692SOL     H246276   2.795   2.233   8.082  0.3199 -2.8139 -1.0228
 6693SOL    OH246277   0.543   0.191   7.874  0.1350  0.1072  0.2103
 6693SOL     H146278   0.517   0.278   7.904  0.6420  0.0083  0.9397
 6693SOL     H246279   0.489   0.175   7.796 -2.0429 -0.1306  1.7082
 6694SOL    OH246280   4.647   6.770   7.477  0.0130 -0.0759 -0.2341
 6694SOL     H146281   4.673   6.704   7.541 -0.8181  1.7157  2.0132
 6694SOL     H246282   4.565   6.737   7.441 -0.0978 -0.5652  0.4443
 6695SOL    OH246283   7.773   6.322   0.695  0.6829 -0.2718  0.0460
 6695SOL     H146284   7.705   6.273   0.742  0.7839 -0.6517 -0.2000
 6695SOL     H246285   7.804   6.261   0.628  0.3338  0.3621 -0.7036
 6696SOL    OH246286   1.325   2.498   6.657 -0.5920 -0.0019 -0.2592
 6696SOL     H146287   1.248   2.479   6.711  0.3204 -1.1451  0.6654
 6696SOL     H246288   1.346   2.414   6.616  0.1783  0.2980 -0.4811
 6697SOL    OH246289   1.354   6.097   7.094  0.0221  0.1726  0.6488
 6697SOL     H146290   1.326   6.168   7.036 -0.0614  0.0454  0.5329
 6697SOL     H246291   1.272   6.059   7.126  0.0672  1.0230  1.8182
 6698SOL    OH246292   0.996   2.196   1.590 -0.4671 -0.0470 -0.1386
 6698SOL     H146293   0.964   2.212   1.679 -1.4669 -0.7424 -0.3642
 6698SOL     H246294   0.982   2.102   1.576 -0.9670  0.1878 -1.2751
 6699SOL    OH246295   6.164   4.659   2.033  0.1686  0.7161  0.3405
 6699SOL     H146296   6.070   4.667   2.015  0.3222  0.0988 -0.8183
 6699SOL     H246297   6.197   4.605   1.962  1.0455 -0.7873  1.8426
 6700SOL    OH246298   6.938   6.016   5.776  0.1048  0.1032 -0.2319
 6700SOL     H146299   6.949   6.044   5.867 -2.2694 -2.0685  0.8091
 6700SOL     H246300   6.998   5.942   5.767 -0.7593 -0.6346  0.0420
 6701SOL    OH246301   4.668   6.942   2.515 -0.0849 -0.3142 -0.2513
 6701SOL     H146302   4.592   6.982   2.473 -0.0366 -0.1314 -0.1623
 6701SOL     H246303   4.632   6.887   2.584 -0.1525 -0.4440 -0.3888
 6702SOL    OH246304   2.982   3.144   6.516  0.2188 -0.4384  0.1997
 6702SOL     H146305   2.905   3.132   6.461  0.0887 -1.2654  0.5516
 6702SOL     H246306   2.996   3.239   6.519 -0.0646 -0.3668 -0.8527
 6703SOL    OH246307   3.928   2.767   0.315 -0.2342 -0.3088  0.8147
 6703SOL     H146308   3.891   2.772   0.403  1.5528 -0.6301  1.6034
 6703SOL     H246309   4.013   2.724   0.327 -0.5426 -1.5893 -1.2410
 6704SOL    OH246310   4.328   4.893   1.051 -0.2338 -0.2756  0.6210
 6704SOL     H146311   4.347   4.863   1.140  0.3890  0.3264  0.6964
 6704SOL     H246312   4.243   4.855   1.030 -0.4431 -0.3072  1.5257
 6705SOL    OH246313   4.371   4.120   0.861  0.2473  0.5797  0.8250
 6705SOL     H146314   4.426   4.094   0.787 -1.4463  0.6786 -0.5054
 6705SOL     H246315   4.361   4.040   0.913 -2.0564 -0.6606 -1.3820
 6706SOL    OH246316   6.528   3.253  -0.015  0.7569  0.0113 -0.7468
 6706SOL     H146317   6.494   3.164  -0.005  0.5599  0.0977 -0.6485
 6706SOL     H246318   6.472   3.307   0.040  0.4931  0.2841 -1.2740
 6707SOL    OH246319   5.302   2.464   0.758 -0.5690  0.0641  0.2414
 6707SOL     H146320   5.235   2.448   0.823  0.5912  0.3155  1.5294
 6707SOL     H246321   5.324   2.557   0.768 -0.3462  0.0951 -0.4665
 6708SOL    OH246322   0.660   7.182   8.003 -0.1777 -0.1181  0.1965
 6708SOL     H146323   0.642   7.270   7.968  0.2658  0.1388  0.5985
 6708SOL     H246324   0.743   7.192   8.048  1.1509 -1.3667 -1.9113
 6709SOL    OH246325   1.964   3.320   8.088 -0.3620  0.4382 -0.7763
 6709SOL     H146326   1.904   3.257   8.048 -0.4557  0.7819 -1.1773
 6709SOL     H246327   1.913   3.361   8.158  0.0814 -0.8066  0.3011
 6710SOL    OH246328   0.736   0.040   6.275 -0.0378 -0.0183 -0.0570
 6710SOL     H146329   0.683  -0.035   6.249 -2.8416  1.1927  1.8118
 6710SOL     H246330   0.713   0.108   6.212 -1.5412  0.8064  1.3307
 6711SOL    OH246331   0.986   1.592   0.357 -0.6001  0.0294  0.1792
 6711SOL     H146332   1.060   1.576   0.299 -0.4479  1.8142 -0.1367
 6711SOL     H246333   1.026   1.607   0.443 -0.8668 -3.4302  0.9751
 6712SOL    OH246334   0.389   6.583   7.564  0.3196  0.2265  0.1757
 6712SOL     H146335   0.384   6.667   7.518  1.1153  1.0148  1.4700
 6712SOL     H246336   0.310   6.582   7.619  0.4101  0.2317  0.3078
 6713SOL    OH246337   1.640   6.978   2.308 -0.2512 -0.1307  0.0924
 6713SOL     H146338   1.700   6.905   2.323 -0.0853  0.1944  1.1234
 6713SOL     H246339   1.644   7.028   2.390 -0.7663  0.7329 -0.4033
 6714SOL    OH246340   4.770   0.294   2.326  0.0568  0.0841  0.1628
 6714SOL     H146341   4.681   0.295   2.359  0.4590 -1.9683  1.4065
 6714SOL     H246342   4.776   0.214   2.273  0.8569  0.7501 -0.7868
 6715SOL    OH246343   3.533   3.115   8.267 -0.2269  0.6790  0.4468
 6715SOL     H146344   3.588   3.191   8.247  0.0137  0.4277  0.1528
 6715SOL     H246345   3.531   3.065   8.185  0.2461 -0.0355  0.8629
 6716SOL    OH246346   0.687   0.992   8.017  0.1427 -0.2345  0.9070
 6716SOL     H146347   0.674   1.087   8.010  1.1607 -0.1138  0.4718
 6716SOL     H246348   0.679   0.973   8.110 -1.5773  0.0395  0.8252
 6717SOL    OH246349   7.410   4.038   7.158  0.2731  0.4485 -0.0810
 6717SOL     H146350   7.328   4.057   7.111  0.2584 -3.0624 -1.6523
 6717SOL     H246351   7.382   3.991   7.236  0.7524 -0.9091 -0.7059
 6718SOL    OH246352   7.546   4.815   1.325 -0.1175 -0.4555 -0.1391
 6718SOL     H146353   7.464   4.775   1.295 -0.5150 -0.8899  1.4345
 6718SOL     H246354   7.615   4.766   1.281 -0.6657 -1.4810  0.1310
 6719SOL    OH246355   5.002   6.821   1.779 -0.1938 -0.0996  0.3207
 6719SOL     H146356   5.029   6.912   1.779  0.1835 -0.2106  0.2726
 6719SOL     H246357   4.907   6.824   1.786 -0.1667  0.2906  0.5072
 6720SOL    OH246358   6.592   6.170   8.287 -0.2581  0.1996 -0.4215
 6720SOL     H146359   6.646   6.240   8.251 -0.7320  0.6662 -0.2327
 6720SOL     H246360   6.650   6.094   8.290  0.9742  1.1588  1.5420
 6721SOL    OH246361   4.808   0.711   8.213 -0.1768  0.1193 -0.1848
 6721SOL     H146362   4.773   0.707   8.302 -2.5475  2.0744 -0.9813
 6721SOL     H246363   4.888   0.762   8.221 -2.2438  3.4478  0.3689
 6722SOL    OH246364   6.589   1.394   0.411  0.6055  0.4674  0.4788
 6722SOL     H146365   6.622   1.306   0.392 -1.2310 -0.1369  0.0044
 6722SOL     H246366   6.558   1.390   0.501  0.3269  0.5699  0.3880
 6723SOL    OH246367   7.796   2.008   6.918 -0.0219  0.5866  0.1818
 6723SOL     H146368   7.741   2.068   6.968 -0.0009  1.2855 -0.6283
 6723SOL     H246369   7.737   1.937   6.893 -0.2744  0.7481  0.3142
 6724SOL    OH246370   0.662   1.397   6.790  0.3402  0.3463  0.0632
 6724SOL     H146371   0.688   1.470   6.847 -2.7913  3.3271 -2.1302
 6724SOL     H246372   0.567   1.405   6.783 -0.1845 -4.4060  0.2251
 6725SOL    OH246373   6.117   6.339   8.068  0.0625 -0.7054  0.5897
 6725SOL     H146374   6.183   6.309   8.131  0.7539  0.7625  0.5743
 6725SOL     H246375   6.159   6.326   7.982 -0.8446 -2.6215  0.3973
 6726SOL    OH246376   5.435   2.840   7.000 -0.0198 -0.4485 -0.4826
 6726SOL     H146377   5.406   2.909   6.940  0.5191  1.8681  1.8478
 6726SOL     H246378   5.357   2.819   7.051  0.5633  0.7095  0.9311
 6727SOL    OH246379   6.288   0.848   7.583  0.0047 -0.3571  0.3708
 6727SOL     H146380   6.234   0.914   7.540 -1.3332 -0.2602  2.1265
 6727SOL     H246381   6.227   0.776   7.601  0.2175  0.0991  3.1252
 6728SOL    OH246382   4.837   5.773   1.592  0.7243  0.3362  0.2567
 6728SOL     H146383   4.822   5.679   1.580  2.3902 -0.0333  0.9644
 6728SOL     H246384   4.779   5.797   1.664  0.6714 -0.2658  0.4185
 6729SOL    OH246385   5.080   7.485   7.395 -0.4978  0.3042 -0.2947
 6729SOL     H146386   5.013   7.481   7.462  1.5802 -0.5695  1.7884
 6729SOL     H246387   5.077   7.399   7.352 -0.7013  0.2625 -0.1934
 6730SOL    OH246388   5.453   5.949   1.705  0.1381  0.0274 -0.0047
 6730SOL     H146389   5.462   6.042   1.725 -0.1420 -0.0525  0.5036
 6730SOL     H246390   5.533   5.909   1.740 -0.4106 -0.1311  1.1107
 6731SOL    OH246391   2.519   2.180   1.108  0.0366 -0.3329 -0.1962
 6731SOL     H146392   2.575   2.109   1.077  0.2401 -0.5827  0.7333
 6731SOL     H246393   2.523   2.246   1.039  1.2386 -0.4703 -0.2556
 6732SOL    OH246394   5.334   5.043   1.257 -0.1981 -0.4677 -0.3451
 6732SOL     H146395   5.325   4.969   1.197  1.1691 -0.3175 -0.7573
 6732SOL     H246396   5.422   5.077   1.239 -0.7574  1.1658 -0.0614
 6733SOL    OH246397   6.528   0.652   2.516 -0.3446  0.5618 -0.2787
 6733SOL     H146398   6.489   0.666   2.602 -0.2703 -0.6872 -0.0328
 6733SOL     H246399   6.482   0.575   2.482  2.4788 -1.4558  0.3563
 6734SOL    OH246400   1.548   3.906   6.279  0.0369 -0.0299 -0.2830
 6734SOL     H146401   1.484   3.834   6.275  0.8674 -0.6545 -3.4634
 6734SOL     H246402   1.632   3.864   6.264  0.9229  1.1691  1.2646
 6735SOL    OH246403   0.092   5.515   7.269  0.4940  0.3149  0.0272
 6735SOL     H146404   0.145   5.530   7.347 -0.4863 -0.2992  0.8255
 6735SOL     H246405   0.076   5.420   7.269 -2.8952  0.8084  1.3370
 6736SOL    OH246406   2.073   0.277   1.173  0.1720 -0.2197 -0.1541
 6736SOL     H146407   2.164   0.249   1.170  0.3687  0.3077  0.6753
 6736SOL     H246408   2.053   0.303   1.083  0.7208 -0.7091 -0.4171
 6737SOL    OH246409   2.430   7.046   6.948  0.5549  0.2866 -0.1141
 6737SOL     H146410   2.396   7.114   7.006 -0.2245  1.6970 -2.1824
 6737SOL     H246411   2.499   7.090   6.898 -0.5123 -0.2067 -2.0553
 6738SOL    OH246412   7.083   0.179   8.005  0.5024 -0.1425 -0.1338
 6738SOL     H146413   7.112   0.267   8.031 -0.0004 -0.0930  0.2839
 6738SOL     H246414   7.019   0.155   8.072  3.0096 -2.1813  1.6058
 6739SOL    OH246415   4.888   3.397   7.847 -0.1567  0.5258 -0.3881
 6739SOL     H146416   4.848   3.342   7.779 -0.3288  0.5182 -0.2798
 6739SOL     H246417   4.977   3.412   7.815 -0.1331  0.2492 -0.4580
 6740SOL    OH246418   7.912   3.602   2.194  0.0378 -0.0526  0.7477
 6740SOL     H146419   7.888   3.622   2.104  2.2627  1.5695  0.4552
 6740SOL     H246420   7.985   3.541   2.186 -0.1939 -0.4337  1.4720
 6741SOL    OH246421   3.291   7.708   1.554  0.3312  0.4886 -0.3667
 6741SOL     H146422   3.352   7.733   1.485  1.5028  1.1360  0.8746
 6741SOL     H246423   3.335   7.637   1.601 -0.2359  0.3918  0.0332
 6742SOL    OH246424   1.440   4.103   8.094 -0.3788  0.8703 -0.2728
 6742SOL     H146425   1.392   4.123   8.175  1.6300  0.2818  1.1019
 6742SOL     H246426   1.390   4.032   8.054  0.5698 -1.3563  2.3280
 6743SOL    OH246427   0.665   7.705   6.232  0.8116  0.0089  0.2316
 6743SOL     H146428   0.708   7.739   6.154 -0.1349 -1.3329 -0.8928
 6743SOL     H246429   0.656   7.611   6.215 -3.1601  0.3368  0.1474
 6744SOL    OH246430   7.243   7.456   2.190  0.1595 -0.7421  0.3368
 6744SOL     H146431   7.290   7.540   2.196 -0.7851 -0.2141  0.4352
 6744SOL     H246432   7.214   7.451   2.099 -1.1719 -0.1991  0.7236
 6745SOL    OH246433   3.044   4.702   7.040  0.5580  0.0328  0.2508
 6745SOL     H146434   2.954   4.713   7.009  1.2442  1.0223 -1.5021
 6745SOL     H246435   3.087   4.652   6.970  2.2313  2.5545 -0.5645
 6746SOL    OH246436   3.854   1.938   1.511  0.4795  0.5525  0.2178
 6746SOL     H146437   3.789   1.869   1.525 -0.7405  1.8223  0.8880
 6746SOL     H246438   3.928   1.913   1.566 -0.2816  0.1978  1.0853
 6747SOL    OH246439   6.160   7.530   7.196 -0.3461  0.4142 -0.3259
 6747SOL     H146440   6.136   7.553   7.106  0.5918  0.1653 -0.6479
 6747SOL     H246441   6.236   7.584   7.215  1.0717 -1.4257 -0.6270
 6748SOL    OH246442   5.138   6.553   1.622 -0.1837  0.4181  0.0352
 6748SOL     H146443   5.043   6.548   1.636 -0.2077 -1.0180 -0.4963
 6748SOL     H246444   5.150   6.628   1.565 -0.9890  0.7079  0.2384
 6749SOL    OH246445   3.100   1.189   6.912  0.3299  0.2337  0.0360
 6749SOL     H146446   3.024   1.247   6.922 -1.3195 -1.7397 -0.8297
 6749SOL     H246447   3.127   1.201   6.821  0.3220  0.0310  0.0076
 6750SOL    OH246448   6.137   1.083   1.916  0.3755 -0.2732 -0.7392
 6750SOL     H146449   6.105   1.107   2.004  1.1178  1.2965 -0.8673
 6750SOL     H246450   6.115   0.991   1.907 -1.2445 -0.0416  0.4375
 6751SOL    OH246451   7.415   2.402   0.309 -0.2915 -0.1355 -0.3854
 6751SOL     H146452   7.341   2.451   0.274 -0.7005  0.1233  0.8312
 6751SOL     H246453   7.476   2.468   0.341 -0.8933 -0.4031  1.3553
 6752SOL    OH246454   3.541   5.375   5.854 -0.0653  0.1108  0.1621
 6752SOL     H146455   3.521   5.438   5.785 -0.1632 -0.4387 -0.3125
 6752SOL     H246456   3.621   5.409   5.895  0.6219 -0.1612 -0.9482
 6753SOL    OH246457   3.662   0.501   0.799  0.0327 -0.8381  0.4827
 6753SOL     H146458   3.748   0.539   0.819  0.2302 -1.4012  0.7232
 6753SOL     H246459   3.633   0.548   0.721  0.7795 -0.9692  0.1145
 6754SOL    OH246460   2.843   1.813   0.768 -0.5147  0.1626 -0.1883
 6754SOL     H146461   2.884   1.728   0.756 -0.0987  0.4371 -0.7460
 6754SOL     H246462   2.750   1.798   0.751 -0.6578 -0.4705  1.1246
 6755SOL    OH246463   0.924   3.352   2.051  0.1800  0.5828  0.6248
 6755SOL     H146464   0.973   3.339   1.970 -0.4401 -0.4814  0.4118
 6755SOL     H246465   0.933   3.446   2.069  1.2910  0.6173 -0.0435
 6756SOL    OH246466   4.589   4.735   6.976 -0.3668  0.0188 -0.0163
 6756SOL     H146467   4.587   4.655   6.923  3.6654 -0.0340 -0.2639
 6756SOL     H246468   4.599   4.703   7.066  2.3125  0.2198 -0.2208
 6757SOL    OH246469   5.899   3.217   0.164  0.6477 -0.1974 -0.3127
 6757SOL     H146470   5.958   3.143   0.180  1.7765  0.7111 -0.2402
 6757SOL     H246471   5.865   3.240   0.250  0.8621 -0.1475 -0.2438
 6758SOL    OH246472   6.699   5.310   7.438  0.5301  0.1248  0.1973
 6758SOL     H146473   6.698   5.406   7.439  1.1286  0.1372  0.1004
 6758SOL     H246474   6.656   5.284   7.519 -1.8351  0.4574 -0.9226
 6759SOL    OH246475   0.297   7.575   7.107  0.7721 -0.4063 -0.5985
 6759SOL     H146476   0.390   7.562   7.086  1.2940  1.4952  0.4947
 6759SOL     H246477   0.297   7.637   7.180 -1.3751 -0.2121 -0.7453
 6760SOL    OH246478   0.687   5.792   6.389 -0.3006  0.7681  0.2260
 6760SOL     H146479   0.687   5.742   6.471 -0.5900  0.5553  0.0973
 6760SOL     H246480   0.777   5.825   6.382  0.4727 -1.3926 -0.6696
 6761SOL    OH246481   1.398   5.946   0.759 -0.2304 -0.3358  0.3770
 6761SOL     H146482   1.384   5.884   0.831  2.2464  0.4864  1.6088
 6761SOL     H246483   1.384   5.894   0.680  0.2894 -2.0976  1.4093
 6762SOL    OH246484   2.436   5.388   6.891  0.0786 -0.0015 -0.3456
 6762SOL     H146485   2.491   5.310   6.891 -0.6753 -0.5385 -0.8249
 6762SOL     H246486   2.403   5.395   6.981 -1.4648 -1.3879 -0.7856
 6763SOL    OH246487   2.910   4.731   0.160  0.1125  0.4624  0.1888
 6763SOL     H146488   2.877   4.819   0.142 -0.9514  0.0871  0.3119
 6763SOL     H246489   3.003   4.736   0.137  0.0465  1.5963  0.1276
 6764SOL    OH246490   7.698   5.270   6.311 -0.0452 -0.5137 -0.4582
 6764SOL     H146491   7.765   5.207   6.285  0.2341  0.1383 -1.3521
 6764SOL     H246492   7.676   5.316   6.230 -2.4937 -1.5803 -0.4499
 6765SOL    OH246493   7.627   0.439   8.226  0.2542 -0.6082 -0.2082
 6765SOL     H146494   7.710   0.413   8.186  1.2041  0.2961  1.1326
 6765SOL     H246495   7.627   0.395   8.311  1.5621  3.1212  1.7969
 6766SOL    OH246496   0.168   6.686   0.816 -0.2966  0.2602  0.1346
 6766SOL     H146497   0.258   6.668   0.843 -1.3576 -0.5071  3.3981
 6766SOL     H246498   0.128   6.600   0.804 -0.9700  0.5814 -0.0022
 6767SOL    OH246499   1.137   4.148   7.945 -0.0759 -0.5618 -0.5291
 6767SOL     H146500   1.172   4.209   8.010 -0.4623 -0.0299 -0.8197
 6767SOL     H246501   1.191   4.069   7.955  2.1862  0.7611 -1.9761
 6768SOL    OH246502   6.200   6.429   1.164 -1.0615  0.0148 -0.0995
 6768SOL     H146503   6.167   6.397   1.080 -3.0837  0.0429  0.6453
 6768SOL     H246504   6.180   6.523   1.164 -0.3691  0.1675  0.0932
 6769SOL    OH246505   2.641   5.708   6.865 -0.1073 -0.0032 -0.1273
 6769SOL     H146506   2.611   5.784   6.815 -2.3649 -0.8382 -0.0885
 6769SOL     H246507   2.731   5.694   6.835  0.4669  2.8530  0.0932
 6770SOL    OH246508   4.503   2.238   7.314 -0.4170  0.5139  0.0624
 6770SOL     H146509   4.582   2.192   7.286  0.0136 -1.2200  3.8861
 6770SOL     H246510   4.527   2.331   7.311  1.2208  0.0899 -0.3425
 6771SOL    OH246511   1.568   6.941   1.633 -0.4444 -0.1719  0.1815
 6771SOL     H146512   1.593   6.903   1.549  1.5099  1.2502  0.0842
 6771SOL     H246513   1.596   6.875   1.697 -1.9747 -1.2737 -0.2466
 6772SOL    OH246514   0.481   1.460   7.904 -0.3088  0.0836 -0.4305
 6772SOL     H146515   0.417   1.490   7.839  0.1746  0.8692 -0.5478
 6772SOL     H246516   0.560   1.442   7.853 -0.6310 -1.5485 -0.3859
 6773SOL    OH246517   3.320   7.506   0.408 -0.1016 -0.2516  0.0165
 6773SOL     H146518   3.367   7.518   0.491  0.5142 -0.9330 -0.2273
 6773SOL     H246519   3.232   7.478   0.435  0.3392 -1.2709  0.4339
 6774SOL    OH246520   3.533   4.665   6.647 -0.2013  0.2507  0.1737
 6774SOL     H146521   3.609   4.719   6.622 -0.0493 -0.5712 -1.1990
 6774SOL     H246522   3.572   4.585   6.681 -0.4340  0.8739  1.9378
 6775SOL    OH246523   3.269   2.147   1.488 -0.1752 -0.1463  0.1327
 6775SOL     H146524   3.271   2.149   1.392 -2.4829 -0.7063  0.0219
 6775SOL     H246525   3.298   2.058   1.511 -0.6890 -0.3867 -0.1221
 6776SOL    OH246526   7.078   5.675   0.859 -0.4056 -0.2423 -0.0177
 6776SOL     H146527   7.053   5.636   0.775  0.1110  0.9560 -0.7379
 6776SOL     H246528   7.072   5.770   0.844  0.8076 -0.0058  0.9379
 6777SOL    OH246529   3.480   5.427   7.042 -0.4125  0.0676 -0.0271
 6777SOL     H146530   3.387   5.411   7.028 -0.6803  0.5768  1.1461
 6777SOL     H246531   3.505   5.365   7.110 -0.1427  0.6494  0.4109
 6778SOL    OH246532   6.533   4.042   1.980 -0.3620  0.1854 -0.6728
 6778SOL     H146533   6.540   4.119   2.037 -2.2516  0.0236 -0.1813
 6778SOL     H246534   6.564   4.072   1.895  1.4078  0.7545  0.1643
 6779SOL    OH246535   7.113   4.487   7.319  0.6655  0.5428  0.1652
 6779SOL     H146536   7.160   4.514   7.398  0.0042  0.5481  0.5621
 6779SOL     H246537   7.181   4.454   7.260  1.3336  1.7922  0.2082
 6780SOL    OH246538   1.108   7.351   1.733 -0.9190  0.2412 -0.1527
 6780SOL     H146539   1.099   7.406   1.655 -3.1004  1.4320  0.8958
 6780SOL     H246540   1.183   7.389   1.780 -0.1552  0.0678 -1.2035
 6781SOL    OH246541   5.203   5.433   1.176 -0.0916  0.6688  0.6855
 6781SOL     H146542   5.154   5.500   1.128 -0.7997 -0.6153 -0.4203
 6781SOL     H246543   5.154   5.353   1.161  2.1174 -0.5694 -0.1153
 6782SOL    OH246544   6.499   5.645   7.483  0.0965  0.1201 -0.1759
 6782SOL     H146545   6.457   5.676   7.563 -0.7969  0.0758 -0.6188
 6782SOL     H246546   6.479   5.552   7.480  0.4079  0.0562 -0.2851
 6783SOL    OH246547   1.781   6.686   7.669  0.1346 -0.4355 -0.4661
 6783SOL     H146548   1.756   6.611   7.615  2.0655 -1.2918 -0.2113
 6783SOL     H246549   1.854   6.726   7.622  2.0919 -1.4071  1.6370
 6784SOL    OH246550   2.873   4.400   1.454 -0.0338  0.4041  0.9533
 6784SOL     H146551   2.865   4.362   1.366  0.2955  2.8238 -0.1850
 6784SOL     H246552   2.943   4.351   1.496 -0.2583 -0.8480 -0.1157
 6785SOL    OH246553   1.341   2.645   7.243  0.2222  0.8213 -0.5276
 6785SOL     H146554   1.254   2.641   7.282  0.2412  1.4648 -0.4179
 6785SOL     H246555   1.330   2.696   7.163  0.2863 -0.0462 -1.1048
 6786SOL    OH246556   7.615   6.302   6.918  0.0706 -0.5557  0.2961
 6786SOL     H146557   7.662   6.249   6.983  0.8332 -0.9748 -0.5849
 6786SOL     H246558   7.531   6.321   6.960  0.9681  0.0962  1.8333
 6787SOL    OH246559   4.859   2.285   7.435 -0.3206 -0.8206  0.1595
 6787SOL     H146560   4.910   2.365   7.424 -1.9777  0.1241 -0.8432
 6787SOL     H246561   4.831   2.286   7.526  1.5689 -1.4501  0.7774
 6788SOL    OH246562   2.360   7.248   7.118 -0.5690 -0.0964 -0.1565
 6788SOL     H146563   2.270   7.231   7.144 -0.7018 -1.1551 -1.2654
 6788SOL     H246564   2.358   7.336   7.080 -1.0504  0.0470  0.2047
 6789SOL    OH246565   2.014   3.483   1.050  0.4031  0.1328  0.0045
 6789SOL     H146566   2.045   3.426   0.980  0.0356 -0.0710  0.0074
 6789SOL     H246567   1.980   3.560   1.005 -1.6793 -0.8506 -0.1714
 6790SOL    OH246568   4.711   5.376   7.093 -0.4254  0.5162  0.0286
 6790SOL     H146569   4.693   5.464   7.061 -0.1696  0.4858 -0.2022
 6790SOL     H246570   4.806   5.368   7.089 -0.3182  0.8555  1.7002
 6791SOL    OH246571   1.531   6.372   1.145  0.3046 -0.2312 -0.4869
 6791SOL     H146572   1.473   6.446   1.123  0.2073 -1.0682 -3.2675
 6791SOL     H246573   1.476   6.295   1.133  0.5683 -0.7926  1.8604
 6792SOL    OH246574   5.857   3.799   0.778 -0.3440  0.0388  0.1691
 6792SOL     H146575   5.874   3.887   0.746 -2.5759  0.8056  0.9849
 6792SOL     H246576   5.770   3.804   0.818 -1.4937 -3.0220 -1.7244
 6793SOL    OH246577   3.158   4.782   0.079 -0.0188 -0.0158 -0.0470
 6793SOL     H146578   3.188   4.693   0.093  0.8453  0.2722 -0.0288
 6793SOL     H246579   3.224   4.821   0.022 -2.2565 -0.4836 -3.0794
 6794SOL    OH246580   0.394   3.344   7.605 -0.4811 -0.5340  0.1585
 6794SOL     H146581   0.308   3.303   7.616 -1.5255  1.3792 -0.6207
 6794SOL     H246582   0.402   3.404   7.679 -0.5513  0.5268 -0.6885
 6795SOL    OH246583   7.258   3.945   7.648 -0.2471 -0.4605 -0.5261
 6795SOL     H146584   7.243   4.036   7.675  0.5810 -0.8614  1.3802
 6795SOL     H246585   7.186   3.896   7.687  0.7479 -0.9854  0.7325
 6796SOL    OH246586   0.465   4.610   7.564 -0.3038 -0.1266  0.7016
 6796SOL     H146587   0.459   4.705   7.567  0.4676 -0.0912  1.3245
 6796SOL     H246588   0.557   4.593   7.541 -0.7503 -0.7017 -0.7171
 6797SOL    OH246589   3.094   1.252   0.570 -0.1091 -0.8995 -0.3732
 6797SOL     H146590   3.020   1.308   0.547 -0.9888 -1.9301 -0.0958
 6797SOL     H246591   3.082   1.173   0.517  0.7246 -1.1146 -0.2411
 6798SOL    OH246592   0.714   4.369   6.774 -0.1616 -0.3854  0.3547
 6798SOL     H146593   0.686   4.456   6.805 -0.2946 -0.2763 -0.0725
 6798SOL     H246594   0.666   4.308   6.830  1.2820 -0.1827  1.8537
 6799SOL    OH246595   4.808   4.731   1.107  0.2605 -0.2435  0.8390
 6799SOL     H146596   4.836   4.675   1.034 -1.0860 -0.2023  0.2728
 6799SOL     H246597   4.875   4.799   1.112  0.7667 -0.6766  0.1261
 6800SOL    OH246598   6.984   4.722   0.525  0.4717  0.6174 -0.0760
 6800SOL     H146599   6.968   4.806   0.483 -2.4664 -0.2869 -0.8506
 6800SOL     H246600   7.028   4.669   0.458  0.2074  0.7638 -0.3643
 6801SOL    OH246601   0.019   1.335   1.827  0.5206 -0.4942 -0.0811
 6801SOL     H146602   0.040   1.375   1.742 -0.2839 -1.0295 -0.5336
 6801SOL     H246603   0.053   1.246   1.820  0.1399 -0.6460  0.0372
 6802SOL    OH246604   3.820   6.707   0.045 -0.4785  0.0395  0.4068
 6802SOL     H146605   3.822   6.784   0.101 -2.3718 -0.8953  1.8303
 6802SOL     H246606   3.907   6.703   0.006  0.5470  1.2892  2.4976
 6803SOL    OH246607   1.861   4.366   7.027  0.6982  0.4951  0.1105
 6803SOL     H146608   1.890   4.413   7.105  1.1895  0.4632 -0.0516
 6803SOL     H246609   1.906   4.282   7.033 -0.5094 -0.1346  0.6277
 6804SOL    OH246610   5.675   0.428   6.116 -0.2930  0.1698 -0.3951
 6804SOL     H146611   5.630   0.510   6.094 -1.0906 -0.3375 -0.6889
 6804SOL     H246612   5.744   0.421   6.049  1.0041  1.5370  0.7540
 6805SOL    OH246613   7.882   6.040   1.368  0.5473 -0.1792 -0.0293
 6805SOL     H146614   7.875   5.951   1.333 -0.4288 -0.3988  0.7047
 6805SOL     H246615   7.812   6.089   1.326  0.8573  0.1497 -0.1632
 6806SOL    OH246616   0.698   3.600   1.901 -0.0354  0.7727  0.4989
 6806SOL     H146617   0.753   3.616   1.977  0.3079 -2.2851  0.9614
 6806SOL     H246618   0.759   3.571   1.833 -0.6672  0.6877 -0.0382
 6807SOL    OH246619   0.461   1.854   7.743  0.5235  0.0220  0.0409
 6807SOL     H146620   0.389   1.878   7.684 -0.5424  2.3386  2.1880
 6807SOL     H246621   0.443   1.763   7.766 -0.1851 -0.2779 -1.5984
 6808SOL    OH246622   7.546   2.870   1.447 -0.2701  0.1254  0.3894
 6808SOL     H146623   7.517   2.837   1.362 -0.8964 -1.2839  1.1358
 6808SOL     H246624   7.635   2.835   1.457 -0.3727 -0.1019  0.5176
 6809SOL    OH246625   3.300   4.941   8.111 -0.6729 -0.1793 -0.1467
 6809SOL     H146626   3.332   4.870   8.055  0.1401  0.7453 -0.8566
 6809SOL     H246627   3.215   4.964   8.073 -0.0997  0.4823 -1.0466
 6810SOL    OH246628   6.313   3.212   1.708  0.4496 -0.2652 -0.4652
 6810SOL     H146629   6.345   3.178   1.625 -0.0376  1.2548 -1.2936
 6810SOL     H246630   6.267   3.293   1.685 -0.9393 -0.5676  1.1016
 6811SOL    OH246631   1.933   6.838   6.530  0.0675  0.0345  0.4519
 6811SOL     H146632   1.839   6.819   6.536  0.3512 -1.1896  1.0557
 6811SOL     H246633   1.952   6.838   6.436 -0.4934  0.0750  0.3370
 6812SOL    OH246634   2.967   0.468   7.681 -0.9981  0.2994  0.1190
 6812SOL     H146635   2.946   0.555   7.713 -0.1115  0.1559  1.1441
 6812SOL     H246636   3.040   0.439   7.736 -0.6673 -0.7135 -0.8191
 6813SOL    OH246637   4.902   3.657   8.155 -0.7714  0.0108  0.6392
 6813SOL     H146638   4.862   3.744   8.150  0.2717  0.6094  2.1672
 6813SOL     H246639   4.932   3.639   8.066  2.2701  2.8408  0.9983
 6814SOL    OH246640   4.145   5.772   6.036  0.6630  0.1344 -0.7652
 6814SOL     H146641   4.195   5.769   6.118 -1.7735 -0.4814  0.7329
 6814SOL     H246642   4.197   5.718   5.975  1.6881 -0.7262  0.8252
 6815SOL    OH246643   0.119   4.351   7.342 -0.2268  0.3152 -0.0110
 6815SOL     H146644   0.072   4.293   7.402  1.1826  0.1438  0.9420
 6815SOL     H246645   0.055   4.371   7.274 -1.0835 -1.5128  0.2076
 6816SOL    OH246646   3.220   5.409   1.034  0.1537 -0.6981 -0.5044
 6816SOL     H146647   3.154   5.345   1.060 -0.7647  1.1385  1.9455
 6816SOL     H246648   3.260   5.436   1.117  1.5720  0.7524 -1.6387
 6817SOL    OH246649   1.119   0.124   1.047  0.3374  0.3760  0.2704
 6817SOL     H146650   1.038   0.158   1.087 -0.3498 -0.7081 -0.1723
 6817SOL     H246651   1.183   0.127   1.117 -1.0657 -2.2927  1.7467
 6818SOL    OH246652   3.310   4.387   5.868  0.4424  0.6437 -0.1301
 6818SOL     H146653   3.236   4.433   5.830  1.2219  1.5605 -0.5474
 6818SOL     H246654   3.272   4.334   5.939 -0.3550  2.5719  0.9206
 6819SOL    OH246655   4.695   5.404  -0.010 -1.0209  0.0027  0.2492
 6819SOL     H146656   4.660   5.316  -0.001  0.6754 -0.4905  2.5159
 6819SOL     H246657   4.696   5.439   0.079  2.5003  0.6255  0.0467
 6820SOL    OH246658   6.237   4.508   1.433  0.5718 -1.0135 -0.0168
 6820SOL     H146659   6.265   4.441   1.496  0.0458 -1.9215 -0.7350
 6820SOL     H246660   6.267   4.476   1.348  0.2095 -0.3996 -0.3801
 6821SOL    OH246661   1.135   4.942   6.434  0.4522 -0.4221  0.4684
 6821SOL     H146662   1.161   5.033   6.420  0.0461 -0.1870  1.2498
 6821SOL     H246663   1.156   4.925   6.525 -0.0282 -0.9284  0.4829
 6822SOL    OH246664   2.338   1.600   7.290  0.0505 -0.2276  0.0021
 6822SOL     H146665   2.270   1.657   7.326 -0.6189 -1.4573  0.7019
 6822SOL     H246666   2.396   1.660   7.242 -2.0080  0.7388 -1.3723
 6823SOL    OH246667   6.004   5.070   2.243 -0.0174 -0.4691  0.2586
 6823SOL     H146668   6.022   5.064   2.149  1.3764 -1.7030  0.5842
 6823SOL     H246669   6.084   5.039   2.285 -0.2278  1.1225  1.8838
 6824SOL    OH246670   4.547   6.908   6.460 -0.4845  0.1912 -0.2804
 6824SOL     H146671   4.623   6.962   6.442  0.1687 -0.5147  0.3199
 6824SOL     H246672   4.521   6.874   6.374  2.4704 -2.9637 -0.0656
 6825SOL    OH246673   2.659   4.225   5.811  0.2066  0.0161 -0.2671
 6825SOL     H146674   2.753   4.209   5.802  0.0751 -1.5629  0.9091
 6825SOL     H246675   2.651   4.274   5.893 -0.0440 -0.3913 -0.0478
 6826SOL    OH246676   1.655   3.557   7.043  0.5139  0.2772 -0.0640
 6826SOL     H146677   1.603   3.488   7.003 -0.6483  1.0189  0.1567
 6826SOL     H246678   1.647   3.631   6.982 -0.1456  0.9660  0.8458
 6827SOL    OH246679   6.940   6.861   8.134 -0.0878  0.2415  0.0372
 6827SOL     H146680   6.867   6.920   8.117  1.1543  1.7044 -0.2664
 6827SOL     H246681   7.000   6.875   8.061  0.5972 -0.8112  0.3886
 6828SOL    OH246682   6.526   4.755   7.000  0.0425 -0.2463 -0.1300
 6828SOL     H146683   6.508   4.848   6.993  0.8286 -0.0242  0.6540
 6828SOL     H246684   6.615   4.744   6.966  0.9726 -0.2795  2.1761
 6829SOL    OH246685   6.192   0.057   7.439 -0.3588  0.1443 -0.0427
 6829SOL     H146686   6.138  -0.020   7.459 -0.4141  0.2668  0.2900
 6829SOL     H246687   6.165   0.084   7.351 -2.6785  1.7265  1.1058
 6830SOL    OH246688   5.246   4.286   8.068  0.1070  0.3030 -0.0451
 6830SOL     H146689   5.271   4.259   8.156  0.7327 -0.4363 -0.4381
 6830SOL     H246690   5.151   4.274   8.065  0.0879  0.3087  0.5153
 6831SOL    OH246691   3.769   6.798   6.432  0.1950  0.0436 -0.4705
 6831SOL     H146692   3.842   6.860   6.431 -0.8910  1.3407 -1.7891
 6831SOL     H246693   3.734   6.804   6.521  0.0806  1.3748 -0.5951
 6832SOL    OH246694   5.087   2.122   6.905 -0.5694  0.1341  0.1638
 6832SOL     H146695   5.001   2.146   6.870 -0.3546  2.5715  1.2239
 6832SOL     H246696   5.114   2.198   6.957  1.6770 -1.1030  0.8713
 6833SOL    OH246697   3.140   2.305   8.242 -0.7187  0.1598  0.2268
 6833SOL     H146698   3.146   2.343   8.155  0.3139  1.0955  0.7032
 6833SOL     H246699   3.211   2.241   8.246 -0.8897 -0.0275  0.3171
 6834SOL    OH246700   3.709   1.015   8.017 -0.0957  0.3182  0.0132
 6834SOL     H146701   3.669   1.020   8.104  0.5527 -0.4642  0.3568
 6834SOL     H246702   3.750   1.100   8.005 -0.0348  0.3681  0.5512
 6835SOL    OH246703   3.489   6.119   7.978  0.3610 -0.2924 -0.0464
 6835SOL     H146704   3.555   6.187   7.990 -0.2712  0.0633  1.4832
 6835SOL     H246705   3.473   6.085   8.066 -1.7900 -0.0851 -0.3346
 6836SOL    OH246706   7.919   0.443   7.292  0.2867 -0.4725 -0.1333
 6836SOL     H146707   7.958   0.359   7.269 -3.0086 -1.3711 -2.8587
 6836SOL     H246708   7.935   0.499   7.216 -0.7537  0.1504  0.0883
 6837SOL    OH246709   1.770   5.956   0.869 -0.1390  0.0384 -0.1776
 6837SOL     H146710   1.837   6.022   0.886  0.0593  0.4533 -2.4078
 6837SOL     H246711   1.687   6.002   0.878 -0.0269  0.3305 -0.5927
 6838SOL    OH246712   0.951   6.416   0.172 -0.0904  0.3185  0.3934
 6838SOL     H146713   0.960   6.329   0.210 -0.9065 -0.4051 -1.0684
 6838SOL     H246714   1.040   6.451   0.173  0.4316 -0.9715 -0.0677
 6839SOL    OH246715   3.201   5.658   7.090  0.1796  0.6739 -0.1556
 6839SOL     H146716   3.233   5.742   7.057  0.4215  1.1747  1.3304
 6839SOL     H246717   3.179   5.675   7.181 -0.6716 -0.6480 -0.1127
 6840SOL    OH246718   0.851   3.615   2.112 -0.1859  0.0369  0.1126
 6840SOL     H146719   0.924   3.671   2.140 -1.1288  1.8771 -0.9533
 6840SOL     H246720   0.776   3.645   2.164 -0.5802 -0.6185 -0.0705
 6841SOL    OH246721   1.701   7.803   0.675  0.3265  0.4590 -0.0621
 6841SOL     H146722   1.767   7.735   0.662  0.2465  0.4836 -0.6146
 6841SOL     H246723   1.666   7.786   0.762  1.6582  0.9617  0.5854
 6842SOL    OH246724   7.231   3.481   1.496  0.1079  0.4387  0.5259
 6842SOL     H146725   7.201   3.561   1.540 -0.0744  0.3849  0.4983
 6842SOL     H246726   7.159   3.456   1.438 -1.6309 -2.1093  3.6072
 6843SOL    OH246727   0.397   3.275   6.528 -0.0579 -0.5753 -0.4076
 6843SOL     H146728   0.362   3.363   6.511  1.6271 -0.2449 -2.2701
 6843SOL     H246729   0.336   3.238   6.592 -2.4926  0.8221 -1.8350
 6844SOL    OH246730   2.072   1.847   6.969 -0.4830 -0.0933  0.0146
 6844SOL     H146731   1.984   1.873   6.996  0.3730  2.5288  0.5037
 6844SOL     H246732   2.082   1.757   7.000 -2.0673  0.4544  2.2237
 6845SOL    OH246733   6.249   0.808   2.023 -0.0191  0.5315  0.4542
 6845SOL     H146734   6.277   0.752   1.951  0.0443  0.5818  0.4392
 6845SOL     H246735   6.159   0.781   2.042  0.3026 -0.1440  1.0093
 6846SOL    OH246736   7.490   1.318   2.174  0.0943 -0.2975  0.1180
 6846SOL     H146737   7.469   1.409   2.197  0.0851 -0.3025  0.1293
 6846SOL     H246738   7.504   1.320   2.080 -1.0139 -0.4981 -0.0581
 6847SOL    OH246739   4.614   2.366   2.267 -0.8186  0.0882  0.0352
 6847SOL     H146740   4.601   2.421   2.345  0.6786 -0.5859  0.7912
 6847SOL     H246741   4.580   2.280   2.293  0.4975 -0.3660  0.2530
 6848SOL    OH246742   7.054   7.245   7.472  0.3989 -0.2155  0.1988
 6848SOL     H146743   7.107   7.295   7.411  0.4589  0.6587  0.9471
 6848SOL     H246744   6.965   7.250   7.437  0.4692  0.1112  0.0593
 6849SOL    OH246745   5.204   6.250   6.821  0.0344 -0.3584 -0.1174
 6849SOL     H146746   5.140   6.197   6.773 -0.3173 -2.1458  2.2515
 6849SOL     H246747   5.151   6.315   6.868  0.1091 -0.7092  0.4501
 6850SOL    OH246748   6.767   4.473   7.051 -0.0776 -0.1370  0.7793
 6850SOL     H146749   6.863   4.476   7.051 -0.0752  0.0210 -0.3110
 6850SOL     H246750   6.745   4.391   7.095  0.5546 -0.0943  1.1730
 6851SOL    OH246751   7.411   0.952   1.815 -0.6277 -0.3320 -0.4623
 6851SOL     H146752   7.428   0.984   1.727 -1.5059 -0.2303 -0.6004
 6851SOL     H246753   7.487   0.981   1.866 -0.4315  0.1773 -1.0351
 6852SOL    OH246754   3.517   1.068   7.837 -0.0018  0.4488  0.7836
 6852SOL     H146755   3.457   1.117   7.892  0.3775  0.0432  1.5670
 6852SOL     H246756   3.593   1.051   7.893  0.5867  0.4357 -0.0055
 6853SOL    OH246757   6.812   0.581   6.000 -0.4451 -0.2082  1.1477
 6853SOL     H146758   6.749   0.645   6.033 -0.6414 -0.7462  1.8477
 6853SOL     H246759   6.759   0.504   5.979 -0.7187  1.0523 -3.1396
 6854SOL    OH246760   1.801   6.334   1.130 -0.2111  0.4625  0.3276
 6854SOL     H146761   1.707   6.320   1.141  0.0372 -2.0824 -0.6347
 6854SOL     H246762   1.808   6.427   1.105 -2.6533  0.0924 -1.9444
 6855SOL    OH246763   3.856   3.081   1.747  0.3585  0.0459  0.0599
 6855SOL     H146764   3.776   3.028   1.746  1.0131 -0.9255 -1.7260
 6855SOL     H246765   3.848   3.139   1.672  1.9219 -0.9602 -0.9147
 6856SOL    OH246766   2.699   1.366   8.180  0.0236 -0.1219 -0.3326
 6856SOL     H146767   2.739   1.447   8.211 -1.3446  1.5289 -2.6469
 6856SOL     H246768   2.606   1.374   8.203 -0.1256 -1.0139 -0.5857
 6857SOL    OH246769   7.421   7.959   6.469 -0.2556 -0.3737  0.2031
 6857SOL     H146770   7.435   7.888   6.531 -0.8764  0.0100  0.8002
 6857SOL     H246771   7.353   8.013   6.510 -0.3479  0.1331 -0.6014
 6858SOL    OH246772   2.569   1.931   6.719  0.9298  0.1781 -0.2532
 6858SOL     H146773   2.489   1.937   6.771  0.6803  1.9987 -0.8038
 6858SOL     H246774   2.564   1.847   6.676 -0.1142 -0.2310  0.6443
 6859SOL    OH246775   5.740   1.522   1.977 -0.1978  0.2573 -0.8156
 6859SOL     H146776   5.762   1.513   2.070  1.7688  0.6148 -1.2278
 6859SOL     H246777   5.679   1.595   1.974 -0.8531 -0.2235  0.2720
 6860SOL    OH246778   0.956   0.862   7.100  0.1592  0.0916 -0.0241
 6860SOL     H146779   0.919   0.948   7.080 -2.3829 -0.8960  0.3297
 6860SOL     H246780   0.886   0.800   7.079  1.2250 -1.7467  1.7393
 6861SOL    OH246781   6.445   0.596   7.532  0.5237  0.2832 -0.0300
 6861SOL     H146782   6.517   0.631   7.583 -0.3253  1.0394  0.6564
 6861SOL     H246783   6.374   0.659   7.543  0.1845  0.2528 -1.8008
 6862SOL    OH246784   4.711   4.710   7.543 -0.3331 -0.0515  0.3548
 6862SOL     H146785   4.648   4.737   7.477  0.1424  1.2581  0.4319
 6862SOL     H246786   4.660   4.705   7.624 -0.3505  0.9304  0.4014
 6863SOL    OH246787   2.920   7.127   0.876 -0.2363 -0.5170  0.1290
 6863SOL     H146788   2.833   7.099   0.847 -0.1426 -0.1856 -0.4697
 6863SOL     H246789   2.980   7.074   0.824 -0.0708 -0.1228 -0.0777
 6864SOL    OH246790   5.143   4.394   0.989  0.0229  0.1549  0.5803
 6864SOL     H146791   5.212   4.368   0.928 -0.3944  0.2075  0.0868
 6864SOL     H246792   5.066   4.408   0.934  0.6430  4.0506  0.6208
 6865SOL    OH246793   5.010   5.538   7.192  0.1020 -0.3050  0.0668
 6865SOL     H146794   5.015   5.452   7.150  2.0027 -0.2451  0.1292
 6865SOL     H246795   5.026   5.521   7.285 -0.6194 -0.0098  0.2490
 6866SOL    OH246796   2.661   4.150   1.666  0.4424  0.4598  0.2192
 6866SOL     H146797   2.651   4.101   1.584 -0.0152 -0.9345  1.0903
 6866SOL     H246798   2.617   4.233   1.650 -2.9002 -1.2181  0.2270
 6867SOL    OH246799   2.392   5.892   1.376 -0.5331  0.2572  0.2637
 6867SOL     H146800   2.328   5.931   1.436 -1.4961 -0.5016 -0.2550
 6867SOL     H246801   2.427   5.967   1.327 -1.8899  0.5649 -0.2686
 6868SOL    OH246802   4.466   2.700   1.111  0.2995  0.3261  0.1069
 6868SOL     H146803   4.405   2.663   1.048  2.8513 -2.2574 -0.9324
 6868SOL     H246804   4.435   2.668   1.196  0.3395 -1.1746 -0.4362
 6869SOL    OH246805   5.117   6.844   1.522  0.0766  0.1514 -0.1867
 6869SOL     H146806   5.074   6.840   1.607  0.3583  3.2126  0.1228
 6869SOL     H246807   5.207   6.867   1.541  0.1638  0.7647 -1.2947
 6870SOL    OH246808   2.748   2.973   7.753  0.4599  0.0339  0.0996
 6870SOL     H146809   2.718   2.904   7.811  1.7265 -0.1780  0.5210
 6870SOL     H246810   2.729   2.941   7.665 -0.5077 -0.1040  0.3577
 6871SOL    OH246811   2.497   0.727   2.058  0.2484 -0.7382 -0.4451
 6871SOL     H146812   2.463   0.814   2.081  1.4239 -0.0693 -1.1696
 6871SOL     H246813   2.572   0.745   2.001  0.6071 -2.2331 -0.4693
 6872SOL    OH246814   7.487   1.508   6.508  0.1734  0.3701 -0.9101
 6872SOL     H146815   7.540   1.586   6.489 -0.5149  1.0713 -0.0115
 6872SOL     H246816   7.539   1.435   6.477  0.6756  1.2220 -2.1040
 6873SOL    OH246817   7.626   3.844   6.615 -0.1563  0.0766 -0.4569
 6873SOL     H146818   7.694   3.776   6.613 -1.8247 -1.6722  0.3155
 6873SOL     H246819   7.545   3.796   6.633 -1.6496  2.0942 -1.6239
 6874SOL    OH246820   4.029   7.180   1.368 -0.4471 -0.4166  0.3597
 6874SOL     H146821   4.053   7.180   1.461  0.8261 -0.2511  0.0499
 6874SOL     H246822   4.104   7.139   1.325 -0.8747 -0.1577 -0.6370
 6875SOL    OH246823   3.303   3.995   2.463 -0.0849  0.2967 -0.0857
 6875SOL     H146824   3.225   3.953   2.428 -1.1813  1.7947  0.5260
 6875SOL     H246825   3.291   4.088   2.443  1.2661  0.6139  0.5331
 6876SOL    OH246826   5.993   2.654   1.525  0.5157  0.3627 -0.2822
 6876SOL     H146827   5.962   2.720   1.587  0.7662  0.2215 -0.0040
 6876SOL     H246828   5.928   2.584   1.529 -0.6895  1.3559 -1.8748
 6877SOL    OH246829   7.298   5.518   0.983 -0.4478  0.0575  0.3870
 6877SOL     H146830   7.228   5.540   0.921 -1.7114 -0.0458  1.7489
 6877SOL     H246831   7.330   5.433   0.955 -0.4995  0.3427 -0.5618
 6878SOL    OH246832   3.923   1.851   0.385  0.1959  0.5671 -0.1883
 6878SOL     H146833   3.853   1.827   0.324 -0.0404  2.2299 -0.5985
 6878SOL     H246834   3.910   1.945   0.400  1.6625  0.6487  0.6264
 6879SOL    OH246835   0.860   2.271   1.018  0.1769  0.4125 -0.3682
 6879SOL     H146836   0.944   2.241   1.052 -0.4804 -0.9785  0.0267
 6879SOL     H246837   0.822   2.323   1.089  0.3136  0.3314 -0.2370
 6880SOL    OH246838   6.756   7.090   8.195 -0.0784  0.6514 -0.3283
 6880SOL     H146839   6.772   7.118   8.285 -2.7006  1.2395  0.0006
 6880SOL     H246840   6.703   7.011   8.205 -2.0811  1.8403 -1.3551
 6881SOL    OH246841   5.820   5.884   1.162  0.1122  0.7989 -0.2266
 6881SOL     H146842   5.771   5.966   1.151  0.5898  1.1840  0.4923
 6881SOL     H246843   5.835   5.854   1.072  0.4927  1.8316 -0.5210
 6882SOL    OH246844   5.010   7.812   7.209  0.3628  0.2816 -0.0487
 6882SOL     H146845   5.082   7.779   7.263  1.1486  1.8839 -0.0667
 6882SOL     H246846   5.028   7.906   7.201 -1.6216  0.6666 -0.2419
 6883SOL    OH246847   6.631   0.378   7.637 -0.0346  0.0463  0.0064
 6883SOL     H146848   6.676   0.359   7.554  0.9657  1.9274  0.0827
 6883SOL     H246849   6.657   0.468   7.658 -1.7577  0.2353  1.4294
 6884SOL    OH246850   0.669   0.578   7.762 -0.0625 -0.1133  0.0909
 6884SOL     H146851   0.721   0.648   7.802 -0.1579 -0.4134  0.7466
 6884SOL     H246852   0.734   0.523   7.717  0.2940 -0.9449  1.5937
 6885SOL    OH246853   4.518   2.550   6.768  0.4632  0.4248  0.3177
 6885SOL     H146854   4.528   2.460   6.737  1.7322  0.9055 -0.6900
 6885SOL     H246855   4.502   2.602   6.689  0.8790  1.2483  0.7619
 6886SOL    OH246856   6.678   0.650   6.680 -0.0781 -0.5637  0.2543
 6886SOL     H146857   6.635   0.685   6.758 -0.0025 -0.3476  0.2002
 6886SOL     H246858   6.693   0.727   6.624  0.4175 -0.6306  0.2939
 6887SOL    OH246859   1.078   3.584   1.888 -0.7073  0.3712  0.4756
 6887SOL     H146860   1.162   3.543   1.866 -0.8780  0.2594  0.0178
 6887SOL     H246861   1.101   3.667   1.929 -0.3075 -1.0956  3.3648
 6888SOL    OH246862   7.207   5.022   7.407  0.3513 -0.1221  0.7432
 6888SOL     H146863   7.296   5.005   7.436  0.0987 -0.2903  1.4351
 6888SOL     H246864   7.215   5.092   7.342  0.9813 -0.1211  0.8274
 6889SOL    OH246865   2.327   2.295  -0.008  0.3452 -0.2124  1.2265
 6889SOL     H146866   2.286   2.269   0.074  1.9800 -1.1223  1.7838
 6889SOL     H246867   2.418   2.265  -0.000  1.0085  1.3413 -0.1458
 6890SOL    OH246868   5.768   1.164   1.548  0.0109  0.8917 -0.4027
 6890SOL     H146869   5.843   1.105   1.550  0.6793  1.6959 -1.3055
 6890SOL     H246870   5.803   1.247   1.514 -1.0188  1.6501  0.3294
 6891SOL    OH246871   6.375   3.607   0.840 -0.1735 -0.0048  0.5957
 6891SOL     H146872   6.349   3.668   0.771 -0.7910  1.6296  2.2203
 6891SOL     H246873   6.309   3.538   0.838  0.3514 -0.4666 -1.0587
 6892SOL    OH246874   0.355   4.180   7.371 -0.7979 -0.1852 -0.2581
 6892SOL     H146875   0.339   4.103   7.317 -0.7392 -0.5502  0.2386
 6892SOL     H246876   0.269   4.216   7.389 -0.8469 -0.3160 -0.2316
 6893SOL    OH246877   5.186   7.658   6.093  0.4741  0.1368 -0.0664
 6893SOL     H146878   5.250   7.723   6.065  0.0629  0.1306 -1.0379
 6893SOL     H246879   5.230   7.574   6.081  1.2129  0.2412  1.7283
 6894SOL    OH246880   7.287   7.943   7.570  0.1474  0.2833  0.1801
 6894SOL     H146881   7.314   8.020   7.619  0.6693  1.1049 -1.3666
 6894SOL     H246882   7.314   7.868   7.624 -0.3140  1.1667  1.6546
 6895SOL    OH246883   5.034   0.745   7.857 -0.1554 -0.8756 -0.2889
 6895SOL     H146884   5.040   0.679   7.926  0.5892  0.9792  1.4782
 6895SOL     H246885   4.986   0.818   7.897 -2.1818 -0.8486 -2.6411
 6896SOL    OH246886   5.879   0.042   6.155  0.0979 -0.0330 -0.3679
 6896SOL     H146887   5.920  -0.045   6.156 -0.5861 -0.3540 -0.0419
 6896SOL     H246888   5.827   0.043   6.075 -0.5834 -0.2524  0.0652
 6897SOL    OH246889   5.923   0.575   8.197 -0.0471  0.2658 -0.2304
 6897SOL     H146890   5.851   0.635   8.214  0.9084  1.4414 -0.2425
 6897SOL     H246891   5.937   0.529   8.280  0.1016  1.0396  0.1728
 6898SOL    OH246892   2.403   1.527   1.811 -0.2326 -0.2616  0.0134
 6898SOL     H146893   2.410   1.432   1.817 -1.2677 -0.3925 -0.7246
 6898SOL     H246894   2.472   1.552   1.749 -0.9842 -0.7146 -1.0376
 6899SOL    OH246895   1.902   4.974   2.218 -0.4182 -0.1533 -0.1128
 6899SOL     H146896   1.882   5.057   2.261 -0.3763  0.2071 -0.7685
 6899SOL     H246897   1.986   4.947   2.255 -2.1590 -1.7775  2.8026
 6900SOL    OH246898   2.149   2.369   7.528  0.0381 -0.3183 -0.5576
 6900SOL     H146899   2.160   2.299   7.463  1.1225  0.1128 -0.8573
 6900SOL     H246900   2.071   2.415   7.499  0.8381  0.2229 -1.9194
 6901SOL    OH246901   5.875   7.286   6.613 -0.2318  0.5202  0.4393
 6901SOL     H146902   5.894   7.192   6.618 -2.0799  0.1663  1.3732
 6901SOL     H246903   5.805   7.292   6.548  1.7547  1.5912 -1.6665
 6902SOL    OH246904   4.046   7.530   7.576 -0.8072 -0.0568 -0.2640
 6902SOL     H146905   3.974   7.520   7.515  0.3012 -0.7257 -1.4811
 6902SOL     H246906   4.004   7.540   7.662 -2.3613  0.9404 -1.1247
 6903SOL    OH246907   6.090   7.821   8.071 -0.3693  0.6062 -0.0112
 6903SOL     H146908   6.054   7.739   8.108 -1.1976  0.5131 -1.0127
 6903SOL     H246909   6.090   7.807   7.977  1.0456  1.1448 -0.0964
 6904SOL    OH246910   5.636   2.121   1.213  0.1597 -0.5489 -0.4685
 6904SOL     H146911   5.678   2.205   1.228 -0.3885  0.1003 -2.4722
 6904SOL     H246912   5.645   2.074   1.297  2.3567  0.6460 -0.0149
 6905SOL    OH246913   6.500   7.685   6.587  0.1568  0.0761  0.1724
 6905SOL     H146914   6.586   7.722   6.609 -0.5134  1.6076  0.2391
 6905SOL     H246915   6.516   7.591   6.579  1.8736  0.3653  0.0424
 6906SOL    OH246916   5.696   3.089   0.779  0.6496 -0.5029  0.4903
 6906SOL     H146917   5.661   3.140   0.852 -0.9552  1.8252 -1.8535
 6906SOL     H246918   5.763   3.145   0.740 -0.0527 -0.8109 -1.1785
 6907SOL    OH246919   5.696   0.491   2.160  0.4041 -0.1174 -0.2339
 6907SOL     H146920   5.640   0.482   2.083  1.4324 -0.5632 -0.9315
 6907SOL     H246921   5.780   0.454   2.134  0.7302 -0.3865  1.1400
 6908SOL    OH246922   7.085   0.101   0.050 -0.2677 -0.3040 -0.3753
 6908SOL     H146923   7.074   0.192   0.024 -1.3354 -0.6146 -1.0550
 6908SOL     H246924   7.158   0.070  -0.003 -0.1683  0.0466 -0.4436
 6909SOL    OH246925   0.488   1.324   2.723 -0.1464 -0.0701 -0.0586
 6909SOL     H146926   0.464   1.379   2.797 -2.9071  1.0497 -1.7261
 6909SOL     H246927   0.427   1.250   2.726  0.7011 -0.7932 -0.3654
 6910SOL    OH246928   1.548   1.399   0.833  0.1371 -0.7727  0.1325
 6910SOL     H146929   1.605   1.401   0.757  1.0400  1.9899  0.8135
 6910SOL     H246930   1.570   1.317   0.878  0.9569 -1.4815 -1.5193
 6911SOL    OH246931   6.756   0.232   6.815  0.7395 -0.0489  0.1365
 6911SOL     H146932   6.720   0.261   6.899  1.3146 -0.6479  0.5881
 6911SOL     H246933   6.703   0.156   6.791  0.1342  0.5287 -0.3767
 6912SOL    OH246934   2.797   3.561   0.107 -0.6719  0.3058  0.3828
 6912SOL     H146935   2.825   3.521   0.190  0.0912  0.4500  0.1999
 6912SOL     H246936   2.749   3.639   0.134 -2.1156 -0.6790  0.7408
 6913SOL    OH246937   7.023   3.197   1.270 -0.9336 -0.0446  0.4272
 6913SOL     H146938   7.106   3.185   1.316 -1.7386  1.1047  2.2340
 6913SOL     H246939   7.014   3.292   1.262 -0.4234 -0.2162 -2.8812
 6914SOL    OH246940   7.409   3.256   6.285 -0.0014  0.8661 -0.0591
 6914SOL     H146941   7.375   3.279   6.372  0.4693  0.4284  0.2415
 6914SOL     H246942   7.504   3.253   6.296 -0.0375 -1.0345 -0.1312
 6915SOL    OH246943   1.631   2.510   6.731  0.5589 -0.0602 -0.3195
 6915SOL     H146944   1.539   2.498   6.755  0.3962  0.1958 -0.8147
 6915SOL     H246945   1.636   2.600   6.700  1.1743  0.2337  0.6069
 6916SOL    OH246946   3.697   0.143   7.484 -0.1658  0.3714  0.1125
 6916SOL     H146947   3.776   0.193   7.506  0.3500  0.5078 -1.9417
 6916SOL     H246948   3.710   0.058   7.525  0.0448  1.1009  1.6122
 6917SOL    OH246949   2.196   2.829   6.974 -0.3845  0.4485 -0.2103
 6917SOL     H146950   2.278   2.820   6.926 -0.4335 -0.3110 -0.1620
 6917SOL     H246951   2.139   2.760   6.938 -0.5743  0.1691  0.6026
 6918SOL    OH246952   3.478   1.006   6.877  0.4852 -0.6344  0.7616
 6918SOL     H146953   3.499   1.009   6.783  2.7240 -1.4064  1.2072
 6918SOL     H246954   3.526   1.081   6.914 -0.4267 -0.3085  1.2814
 6919SOL    OH246955   4.767   4.414   1.837 -0.5688  0.2513  0.4916
 6919SOL     H146956   4.731   4.425   1.926 -1.6957 -1.2043  0.2291
 6919SOL     H246957   4.725   4.483   1.786 -0.4862  0.6248  0.9218
 6920SOL    OH246958   0.877   7.779   1.633  0.5524  0.2421 -0.4053
 6920SOL     H146959   0.818   7.716   1.591  0.8380 -0.5218  0.3294
 6920SOL     H246960   0.964   7.754   1.602  0.4845  1.6543 -1.8610
 6921SOL    OH246961   7.681   0.069   0.935 -0.3540  0.1326 -0.0538
 6921SOL     H146962   7.695   0.013   0.859 -0.9552  0.0421 -0.0956
 6921SOL     H246963   7.670   0.008   1.008 -0.1199  0.2149  0.0531
 6922SOL    OH246964   7.884   4.312   6.669  0.5356 -0.0241  0.5455
 6922SOL     H146965   7.828   4.385   6.643  0.9769 -0.5069 -1.8169
 6922SOL     H246966   7.923   4.280   6.587 -0.3408 -3.4929  1.4075
 6923SOL    OH246967   2.843   3.005   7.243  0.0105 -0.5622  0.2627
 6923SOL     H146968   2.789   2.964   7.310  1.6002  0.3120  2.1372
 6923SOL     H246969   2.907   3.057   7.292 -0.6114  2.4671 -1.9876
 6924SOL    OH246970   7.936   0.715   1.274  0.0665 -0.6979  0.7814
 6924SOL     H146971   7.986   0.794   1.254  2.2079 -2.3074 -0.4401
 6924SOL     H246972   7.942   0.706   1.369 -0.5578  0.8253  0.9691
 6925SOL    OH246973   7.364   7.698   2.164 -0.0468  0.1238  0.1189
 6925SOL     H146974   7.411   7.727   2.242 -0.3903 -0.6464  0.6222
 6925SOL     H246975   7.416   7.731   2.091 -0.6124  2.2501  0.6600
 6926SOL    OH246976   0.958   3.279   5.761 -0.2175  0.1958 -0.6676
 6926SOL     H146977   1.048   3.270   5.730  0.7498  1.6669  1.5416
 6926SOL     H246978   0.904   3.271   5.683  1.7108 -2.4277 -1.7882
 6927SOL    OH246979   3.955   3.902   1.587  0.4451 -0.5721  0.8391
 6927SOL     H146980   3.987   3.813   1.576 -1.1919 -0.9132 -1.5163
 6927SOL     H246981   4.033   3.952   1.614  1.8276 -2.3095  0.1935
 6928SOL    OH246982   4.142   5.630   7.946 -0.7794  0.3611  0.5274
 6928SOL     H146983   4.090   5.707   7.925 -0.0411  1.3890  2.4004
 6928SOL     H246984   4.096   5.590   8.021 -1.8137 -1.6898 -1.1397
 6929SOL    OH246985   5.957   0.441   0.684  0.5108 -0.5920 -0.2544
 6929SOL     H146986   5.920   0.373   0.628  1.0526 -0.1382 -1.1728
 6929SOL     H246987   5.882   0.474   0.735 -0.6495  1.1595 -2.9511
 6930SOL    OH246988   2.671   5.085   0.071 -0.2733 -0.2771  0.4341
 6930SOL     H146989   2.638   5.135  -0.004  0.2641  0.7344  0.8662
 6930SOL     H246990   2.701   5.151   0.133  0.4666 -1.1379  1.0124
 6931SOL    OH246991   3.203   7.534   5.955 -0.0291  0.1364  0.6412
 6931SOL     H146992   3.258   7.521   6.032 -0.2217 -0.0203  0.7509
 6931SOL     H246993   3.265   7.553   5.884  0.2698 -1.5953  0.4182
 6932SOL    OH246994   5.197   5.281   0.429  1.1538 -1.2312  0.2581
 6932SOL     H146995   5.136   5.291   0.503  3.3345 -2.0045  2.2021
 6932SOL     H246996   5.148   5.230   0.365 -1.7399  1.6828  0.0115
 6933SOL    OH246997   1.512   7.832   0.107  0.3111 -0.2473 -0.6228
 6933SOL     H146998   1.544   7.905   0.160 -1.0784  0.5350 -0.8185
 6933SOL     H246999   1.589   7.796   0.065  1.0313  1.0430 -0.4218
 6934SOL    OH247000   2.274   5.830   0.623 -0.3487  0.2129 -0.3489
 6934SOL     H147001   2.242   5.858   0.709 -0.1830 -0.7694  0.0394
 6934SOL     H247002   2.196   5.796   0.579 -0.1469 -0.7048 -0.0043
 6935SOL    OH247003   3.206   0.928   6.839 -0.4281  0.1321 -0.2545
 6935SOL     H147004   3.131   0.957   6.891 -0.2757 -0.8276  0.5127
 6935SOL     H247005   3.282   0.960   6.888 -0.2752 -1.0826  0.3100
 6936SOL    OH247006   7.364   1.173   0.071  0.0545 -0.1612 -0.4630
 6936SOL     H147007   7.272   1.192   0.089 -0.5373 -2.0372 -1.3606
 6936SOL     H247008   7.396   1.249   0.023 -1.0403  0.4580 -0.2286
 6937SOL    OH247009   1.276   7.224   0.536  0.0832  0.5553  1.0694
 6937SOL     H147010   1.370   7.239   0.523  0.2896 -1.4181  0.2028
 6937SOL     H247011   1.242   7.212   0.447 -0.4486 -1.8239  1.5767
 6938SOL    OH247012   3.177   0.013   1.105 -0.8440  0.4869  0.0887
 6938SOL     H147013   3.088   0.036   1.080 -0.6537  0.4518 -0.6337
 6938SOL     H247014   3.196   0.068   1.181 -0.1791  3.1717 -1.9360
 6939SOL    OH247015   7.691   4.472   6.184  0.4575 -0.2777 -0.3122
 6939SOL     H147016   7.767   4.441   6.234 -0.1815  1.0167  1.5034
 6939SOL     H247017   7.723   4.548   6.136  0.3545  0.2374  0.4146
 6940SOL    OH247018   7.334   2.627   6.279  0.2598  0.3442  0.1150
 6940SOL     H147019   7.319   2.612   6.186 -2.1664 -1.1645  0.7084
 6940SOL     H247020   7.292   2.712   6.297 -0.0310  0.2265 -0.0016
 6941SOL    OH247021   3.613   6.666   1.674 -0.2066 -0.0554  0.4381
 6941SOL     H147022   3.532   6.651   1.625 -0.3492  0.6686  0.4447
 6941SOL     H247023   3.611   6.602   1.744 -1.2431  0.5875  1.0015
 6942SOL    OH247024   1.160   1.889   1.625  0.4432 -0.4999  0.2526
 6942SOL     H147025   1.091   1.906   1.562  0.9564 -1.0308 -0.4626
 6942SOL     H247026   1.128   1.927   1.707  0.0455  0.7537 -0.4719
 6943SOL    OH247027   7.007   7.143   7.106  0.4536  0.2765  0.0996
 6943SOL     H147028   7.096   7.169   7.083  0.4349  1.0384  0.9029
 6943SOL     H247029   7.016   7.088   7.184  0.4930 -2.1390 -1.5375
 6944SOL    OH247030   0.324   6.686   6.204  0.0004 -0.1458 -0.4106
 6944SOL     H147031   0.242   6.737   6.204 -0.1693 -0.4057  0.7224
 6944SOL     H247032   0.326   6.643   6.289  1.1954 -0.3590 -0.5316
 6945SOL    OH247033   7.236   1.402   7.903  0.2299  0.1278 -0.2675
 6945SOL     H147034   7.307   1.460   7.931  0.3170  0.4313 -1.0948
 6945SOL     H247035   7.254   1.386   7.810 -0.8733  0.3336 -0.5234
 6946SOL    OH247036   2.922   1.305   8.052 -0.3695  0.6796 -0.2737
 6946SOL     H147037   2.832   1.312   8.085 -1.1495  1.4045 -2.4521
 6946SOL     H247038   2.975   1.351   8.117 -1.5745  0.3662  0.9670
 6947SOL    OH247039   6.255   3.502   7.254 -0.6100 -0.1719  0.4590
 6947SOL     H147040   6.162   3.479   7.260 -0.0640 -2.2789  1.0669
 6947SOL     H247041   6.296   3.457   7.328  0.8857  0.8289  0.2596
 6948SOL    OH247042   3.200   5.693   2.434 -0.5085 -0.5964  0.0159
 6948SOL     H147043   3.288   5.661   2.413 -0.5853 -0.0625 -1.1604
 6948SOL     H247044   3.211   5.787   2.443 -0.9150 -0.5639  0.1584
 6949SOL    OH247045   3.059   3.733   7.697  0.0224  0.4979 -0.4577
 6949SOL     H147046   3.002   3.691   7.762 -0.5815 -0.9072 -1.8372
 6949SOL     H247047   3.094   3.810   7.741 -0.1843 -0.5410  1.6124
 6950SOL    OH247048   0.271   4.282   0.748  0.0013 -0.5383  0.3454
 6950SOL     H147049   0.271   4.199   0.796  1.6260  0.0331  1.3742
 6950SOL     H247050   0.326   4.266   0.672 -2.0656 -1.2520 -1.0568
 6951SOL    OH247051   5.987   1.578   7.392 -0.2279 -0.1943  0.3810
 6951SOL     H147052   5.949   1.511   7.450  3.4845 -1.9963  0.8626
 6951SOL     H247053   6.016   1.529   7.315  2.7004  0.8015  0.8089
 6952SOL    OH247054   4.172   1.345   5.909 -0.1629  0.0721  0.3091
 6952SOL     H147055   4.190   1.439   5.907  0.0606  0.0545  1.2925
 6952SOL     H247056   4.084   1.336   5.872  0.6878  0.4387 -1.8670
 6953SOL    OH247057   7.447   0.490   7.128  0.4493  0.0498  0.3811
 6953SOL     H147058   7.376   0.438   7.092 -1.4225  2.0390  1.1372
 6953SOL     H247059   7.421   0.507   7.219  0.8016  2.6775  0.0300
 6954SOL    OH247060   4.724   5.459   2.506 -0.0363 -0.2895  0.1331
 6954SOL     H147061   4.787   5.387   2.495  0.4179  0.0200  0.6801
 6954SOL     H247062   4.766   5.519   2.568 -1.2829 -0.5662  1.2889
 6955SOL    OH247063   7.179   7.550   1.213  0.2749 -0.0163 -0.2061
 6955SOL     H147064   7.168   7.571   1.306 -0.4779  1.6583 -0.6557
 6955SOL     H247065   7.165   7.455   1.209 -0.8146  0.0487  1.2350
 6956SOL    OH247066   7.824   6.495   1.119  0.0552 -0.1940  0.2307
 6956SOL     H147067   7.800   6.446   1.198  1.6438 -2.3910 -0.5920
 6956SOL     H247068   7.766   6.460   1.051 -1.4042  1.7905  0.4076
 6957SOL    OH247069   5.057   2.589   0.208 -0.3175 -0.2588 -0.4865
 6957SOL     H147070   5.028   2.590   0.117  1.0562 -0.1961 -0.9280
 6957SOL     H247071   5.152   2.599   0.204 -0.2210 -0.4262  0.9468
 6958SOL    OH247072   6.706   5.947   6.967 -0.0168  0.0242  0.0211
 6958SOL     H147073   6.651   5.979   7.040 -1.9452 -1.5046 -0.7114
 6958SOL     H247074   6.751   5.871   7.003  1.9296  1.4464  0.7108
 6959SOL    OH247075   3.809   7.531   8.271 -0.2757 -0.5675  0.1445
 6959SOL     H147076   3.845   7.477   8.341 -0.7752  0.0680  0.8945
 6959SOL     H247077   3.787   7.469   8.202  1.6706 -1.0511 -0.0884
 6960SOL    OH247078   2.453   2.566   7.137 -0.3472 -0.8071  0.2270
 6960SOL     H147079   2.519   2.633   7.120  0.0284 -1.1560  0.3261
 6960SOL     H247080   2.424   2.583   7.227  0.0174 -1.0095  0.3850
 6961SOL    OH247081   3.534   1.419   7.268 -0.2314 -0.1625  0.2901
 6961SOL     H147082   3.521   1.502   7.313 -1.9570 -0.5790  0.6042
 6961SOL     H247083   3.470   1.420   7.196  3.3176  1.0359 -3.0227
 6962SOL    OH247084   6.552   4.533   7.321 -0.3484 -0.3359 -0.1213
 6962SOL     H147085   6.646   4.530   7.338 -0.3398 -1.6264 -0.2965
 6962SOL     H247086   6.512   4.503   7.403 -0.6420  0.9651  0.2138
 6963SOL    OH247087   3.747   6.821   7.874  0.2355 -0.2058 -0.0167
 6963SOL     H147088   3.756   6.727   7.890  0.5481 -0.0792  0.5769
 6963SOL     H247089   3.669   6.846   7.925 -0.1833 -0.2456 -0.6290
 6964SOL    OH247090   3.191   0.556   6.540  0.5627  0.5042 -0.0076
 6964SOL     H147091   3.113   0.602   6.569 -0.4051 -0.5509 -0.8736
 6964SOL     H247092   3.188   0.472   6.586 -0.1514 -0.5403 -1.8850
 6965SOL    OH247093   4.007   6.061   6.332  0.1896 -0.0970 -0.7538
 6965SOL     H147094   3.930   6.049   6.277 -0.3863  0.3172 -0.0490
 6965SOL     H247095   3.997   6.148   6.370 -0.2648 -1.0167  1.2885
 6966SOL    OH247096   7.107   1.275   1.572 -0.1506  0.4179  0.0532
 6966SOL     H147097   7.038   1.338   1.592 -0.4513  0.3214 -0.6472
 6966SOL     H247098   7.185   1.309   1.615  0.0069  1.9829 -1.4364
 6967SOL    OH247099   1.627   5.725   7.633  0.4236 -0.3032  0.4003
 6967SOL     H147100   1.710   5.683   7.654  0.5190 -1.2139 -1.6597
 6967SOL     H247101   1.626   5.731   7.538 -1.2759  0.9369  0.4607
 6968SOL    OH247102   4.531   5.901   5.921  0.4655  0.0389  0.3238
 6968SOL     H147103   4.453   5.872   5.873  0.8010 -1.2287  0.5194
 6968SOL     H247104   4.594   5.830   5.910  2.0127  1.5424 -0.7762
 6969SOL    OH247105   6.530   5.522   6.945  0.5025  0.1542  0.7669
 6969SOL     H147106   6.469   5.480   6.884  0.2053  1.0974  0.3947
 6969SOL     H247107   6.601   5.459   6.956  0.6744  0.0549 -0.7578
 6970SOL    OH247108   5.059   7.774   0.729 -0.3205  0.1035  0.4719
 6970SOL     H147109   5.132   7.802   0.784  0.5110 -0.5574 -0.2689
 6970SOL     H247110   4.985   7.767   0.789  0.9056 -2.0786  1.8195
 6971SOL    OH247111   2.754   6.167   6.665  0.0095  0.2922 -0.5336
 6971SOL     H147112   2.805   6.141   6.742  0.5472  0.2715 -0.8887
 6971SOL     H247113   2.691   6.097   6.653 -1.3045  1.1764  0.9741
 6972SOL    OH247114   3.096   0.819   0.245  0.3171 -0.4374 -0.2112
 6972SOL     H147115   3.080   0.726   0.261 -0.3328  0.0002  1.7868
 6972SOL     H247116   3.130   0.823   0.155 -0.2448 -2.5276 -0.5245
 6973SOL    OH247117   3.421   5.596   2.085  0.6102 -1.0170  0.0490
 6973SOL     H147118   3.418   5.679   2.133  1.5160 -1.8795  1.6189
 6973SOL     H247119   3.513   5.586   2.060  0.4787 -1.4760 -0.2611
 6974SOL    OH247120   1.823   2.860   0.283  0.1280  0.6823  0.2107
 6974SOL     H147121   1.737   2.869   0.323 -1.0252  0.2322 -2.0851
 6974SOL     H247122   1.859   2.780   0.323 -0.9410  0.2989  0.4270
 6975SOL    OH247123   1.677   0.363   1.865  0.0256  0.5649  0.5052
 6975SOL     H147124   1.587   0.393   1.880  0.2256  1.1133  0.6150
 6975SOL     H247125   1.703   0.405   1.782 -0.0846 -0.1999  0.0764
 6976SOL    OH247126   1.512   6.400   7.855 -0.3726 -0.4425 -0.4269
 6976SOL     H147127   1.457   6.369   7.783 -0.8703 -1.3120  0.3206
 6976SOL     H247128   1.449   6.427   7.922  0.1245 -1.7045  0.5477
 6977SOL    OH247129   3.988   0.002   7.359  0.7422  0.4576 -0.8908
 6977SOL     H147130   3.981   0.071   7.426 -0.4814  0.9962 -1.5569
 6977SOL     H247131   4.082  -0.011   7.348  1.0110  2.2772 -0.9894
 6978SOL    OH247132   1.707   0.254   7.643 -0.0127  0.9552  0.1540
 6978SOL     H147133   1.642   0.244   7.574 -0.1253  1.0410  0.2481
 6978SOL     H247134   1.658   0.285   7.719  0.0703  0.6174  0.3471
 6979SOL    OH247135   1.438   3.277   2.817  0.0537 -0.1253  0.1615
 6979SOL     H147136   1.471   3.329   2.890  0.3232  0.9743 -0.7288
 6979SOL     H247137   1.346   3.260   2.840  0.7121 -1.6270  1.7590
 6980SOL    OH247138   1.027   3.834   7.624  0.1959 -0.5672 -0.5830
 6980SOL     H147139   0.951   3.884   7.595 -0.0540 -1.0040 -0.6760
 6980SOL     H247140   1.037   3.765   7.559  0.6880 -0.4960 -0.5844
 6981SOL    OH247141   7.148   3.844   2.070 -0.3438  0.5265  0.6746
 6981SOL     H147142   7.064   3.861   2.113  0.2857  0.8230  1.8080
 6981SOL     H247143   7.180   3.764   2.110 -1.4264 -1.2286 -1.8346
 6982SOL    OH247144   1.669   2.805   6.724 -0.2420  0.6104  0.0363
 6982SOL     H147145   1.748   2.812   6.671  1.7917 -4.2568  2.0828
 6982SOL     H247146   1.682   2.868   6.795  1.5973  0.1743  0.1030
 6983SOL    OH247147   1.401   2.981   7.574  0.2487 -0.1816 -0.2525
 6983SOL     H147148   1.392   2.969   7.480  0.8362  2.7810 -0.7233
 6983SOL     H247149   1.495   2.992   7.588  0.4638 -3.1741  1.0527
 6984SOL    OH247150   7.532   1.599   1.861 -0.5633 -0.1002  0.1363
 6984SOL     H147151   7.496   1.511   1.868 -0.0720 -0.4237 -1.2437
 6984SOL     H247152   7.616   1.594   1.908 -0.3949 -0.4626 -0.1914
 6985SOL    OH247153   0.470   0.994   0.870 -0.2423  0.2645  0.1418
 6985SOL     H147154   0.485   0.948   0.787  1.2748  1.3052 -0.1701
 6985SOL     H247155   0.397   1.052   0.852 -0.9969 -0.6977  0.0197
 6986SOL    OH247156   0.042   5.215   7.577 -0.0348 -0.0481 -0.1436
 6986SOL     H147157   0.016   5.307   7.580 -1.8046 -0.5262 -0.2301
 6986SOL     H247158   0.050   5.190   7.669 -3.0876 -0.7340  0.0020
 6987SOL    OH247159   4.441   4.070   8.178 -0.1995  0.0038 -0.3385
 6987SOL     H147160   4.530   4.078   8.143  0.6770 -2.5561  1.1789
 6987SOL     H247161   4.441   4.125   8.256 -0.4511  1.2200 -1.1707
 6988SOL    OH247162   1.127   7.272   7.586  0.0395  0.5111  0.2439
 6988SOL     H147163   1.037   7.264   7.619  0.5887 -0.9989  1.4510
 6988SOL     H247164   1.140   7.367   7.576 -1.4629  0.7860  0.6554
 6989SOL    OH247165   3.659   0.201   0.590 -0.4304  0.1605  0.3926
 6989SOL     H147166   3.674   0.290   0.558  0.1632  0.7594  2.2456
 6989SOL     H247167   3.625   0.213   0.679  0.2474 -1.4695  0.8914
 6990SOL    OH247168   2.411   0.554   1.760 -0.2170 -0.0766 -0.3620
 6990SOL     H147169   2.382   0.605   1.685 -5.1138  0.5692  1.7979
 6990SOL     H247170   2.439   0.620   1.824 -1.5370 -0.3048  0.4691
 6991SOL    OH247171   2.503   5.258   6.488  1.1908 -0.1966 -0.4051
 6991SOL     H147172   2.582   5.306   6.511  1.5346 -1.3980  0.9768
 6991SOL     H247173   2.531   5.166   6.482  0.0223 -0.5625 -0.4700
 6992SOL    OH247174   5.995   7.570   8.100 -0.5890  0.0384  0.0618
 6992SOL     H147175   6.054   7.511   8.051  1.3107  1.4687  0.5810
 6992SOL     H247176   5.920   7.580   8.042  0.1366 -0.9629 -1.1110
 6993SOL    OH247177   7.238   5.889   7.303  0.2246 -0.3372 -0.7217
 6993SOL     H147178   7.165   5.945   7.278  0.2949  0.4323  0.7560
 6993SOL     H247179   7.316   5.943   7.288  0.2028  0.6036  2.2903
 6994SOL    OH247180   5.775   3.615   7.378 -0.4874  0.2587  0.3368
 6994SOL     H147181   5.804   3.673   7.449  2.2364 -2.0061  1.1400
 6994SOL     H247182   5.700   3.569   7.414 -0.5075  0.7497  0.9376
 6995SOL    OH247183   0.086   1.711   0.110 -0.0667 -0.3682 -0.4677
 6995SOL     H147184   0.085   1.797   0.152  0.7734 -0.9872  0.8621
 6995SOL     H247185   0.019   1.717   0.041 -0.8686  0.9465  0.4013
 6996SOL    OH247186   2.688   4.189   7.767  0.0637 -0.1929  0.2510
 6996SOL     H147187   2.631   4.242   7.711  0.9896  0.9097  0.3247
 6996SOL     H247188   2.776   4.204   7.732  0.4594 -0.8863  0.9198
 6997SOL    OH247189   5.259   2.100   8.135 -0.7648 -0.0988 -0.0515
 6997SOL     H147190   5.269   2.183   8.182  0.1159 -0.0784 -0.2602
 6997SOL     H247191   5.223   2.040   8.200 -1.4285  0.4528  0.0952
 6998SOL    OH247192   1.214   6.638   5.894 -0.6209  0.1404 -0.3707
 6998SOL     H147193   1.168   6.678   5.820  0.1270  0.1770 -0.8101
 6998SOL     H247194   1.144   6.597   5.945 -0.8194 -2.3444 -2.5775
 6999SOL    OH247195   3.794   5.989   8.218 -0.3914  0.1557 -0.1062
 6999SOL     H147196   3.754   5.982   8.131 -1.3149  1.3941  0.1965
 6999SOL     H247197   3.806   5.898   8.246  1.1953 -0.2980 -2.0810
 7000SOL    OH247198   0.649   6.218   0.313 -0.4466 -0.0587  0.0170
 7000SOL     H147199   0.719   6.246   0.372  1.1818 -0.1909 -1.8091
 7000SOL     H247200   0.649   6.123   0.321 -2.3652  0.0674  2.1438
 7001SOL    OH247201   4.822   7.468   6.710  0.3471 -0.2302  0.4505
 7001SOL     H147202   4.898   7.437   6.661 -0.4787 -0.9591 -0.3809
 7001SOL     H247203   4.778   7.528   6.650  0.3292  0.2882  0.9803
 7002SOL    OH247204   0.399   1.133   7.780 -0.4489  0.1862  0.4184
 7002SOL     H147205   0.462   1.061   7.782 -1.3338 -0.5808  1.2671
 7002SOL     H247206   0.333   1.104   7.717 -0.9170  0.1453  0.9226
 7003SOL    OH247207   7.611   4.930   6.820 -0.3413  0.0561 -0.4729
 7003SOL     H147208   7.556   5.007   6.805 -0.9078 -0.0849  0.8516
 7003SOL     H247209   7.572   4.886   6.896  1.6167 -0.0262  0.5257
 7004SOL    OH247210   7.429   3.060   6.908 -0.3988  0.6443 -0.2216
 7004SOL     H147211   7.406   3.064   6.815 -0.3085 -2.3105 -0.4293
 7004SOL     H247212   7.484   2.982   6.915  1.7026  2.2735  1.9087
 7005SOL    OH247213   2.132   0.527   8.262 -0.2776 -0.1328  0.2382
 7005SOL     H147214   2.048   0.554   8.224 -0.8892 -1.5393  0.5493
 7005SOL     H247215   2.167   0.606   8.302 -1.1371  0.6253 -0.4871
 7006SOL    OH247216   0.237   6.642   8.256  0.2857  0.5265 -0.1331
 7006SOL     H147217   0.309   6.667   8.314 -1.1292  1.6948  1.1571
 7006SOL     H247218   0.211   6.724   8.214  0.9744 -0.2285 -2.0989
 7007SOL    OH247219   6.933   7.607   7.503 -0.1767  0.2663 -0.0231
 7007SOL     H147220   6.944   7.671   7.574 -0.8296  0.8267 -0.4200
 7007SOL     H247221   6.924   7.660   7.424  1.2185 -0.3698 -0.6259
 7008SOL    OH247222   6.063   2.820   8.142  1.2923 -0.6690  0.1300
 7008SOL     H147223   5.979   2.775   8.138  1.0245 -0.0530 -1.8113
 7008SOL     H247224   6.097   2.801   8.230 -0.1483 -2.1978  0.3770
 7009SOL    OH247225   6.504   0.381   2.433  0.0299  0.3091 -0.0621
 7009SOL     H147226   6.524   0.321   2.506 -0.3016  0.8991  0.5181
 7009SOL     H247227   6.580   0.375   2.376  0.1944 -0.3350  0.2128
 7010SOL    OH247228   6.735   5.628   7.875  0.0564 -0.3133 -0.2121
 7010SOL     H147229   6.710   5.648   7.785 -0.5542  0.1685  0.0591
 7010SOL     H247230   6.762   5.536   7.873 -2.6199 -1.1550 -0.3528
 7011SOL    OH247231   0.796   4.158   7.802  0.9598  0.9154 -0.0775
 7011SOL     H147232   0.813   4.184   7.712  0.8389  1.8268  0.1570
 7011SOL     H247233   0.859   4.209   7.854  0.8010  0.6521  0.3769
 7012SOL    OH247234   3.326   1.727   0.574 -0.2539 -0.4981 -0.2393
 7012SOL     H147235   3.295   1.760   0.489 -1.3729 -1.1931 -0.1157
 7012SOL     H247236   3.347   1.636   0.558  2.4299  0.1292 -0.4724
 7013SOL    OH247237   2.272   6.611   7.850  0.4288 -0.2767  0.6267
 7013SOL     H147238   2.268   6.532   7.903 -0.4577 -0.0482  0.9071
 7013SOL     H247239   2.250   6.581   7.761  1.3304 -0.5573  0.4929
 7014SOL    OH247240   1.338   0.652   2.282 -0.6791 -0.8459 -0.5040
 7014SOL     H147241   1.273   0.593   2.246 -3.5657  1.4983  0.6845
 7014SOL     H247242   1.309   0.740   2.258  1.7144  0.3143  0.5426
 7015SOL    OH247243   2.062   5.085   8.216  0.7083  0.0608  0.4865
 7015SOL     H147244   2.122   5.134   8.272 -0.0409  0.0622  1.2885
 7015SOL     H247245   2.089   5.107   8.126  2.4257 -0.5543  0.8229
 7016SOL    OH247246   2.083   5.608   6.514  0.3793  0.8413 -0.5938
 7016SOL     H147247   2.020   5.653   6.458 -0.8025 -0.5774 -0.4366
 7016SOL     H247248   2.086   5.659   6.595  0.0589  1.3753 -0.9229
 7017SOL    OH247249   6.493   6.268   6.136  0.3898 -0.4100  0.1767
 7017SOL     H147250   6.413   6.276   6.085  1.0371 -1.2892 -1.0134
 7017SOL     H247251   6.477   6.193   6.193  0.0064  0.0149  0.6348
 7018SOL    OH247252   6.467   6.506   6.822  0.4570  0.2671  0.8513
 7018SOL     H147253   6.532   6.572   6.796  0.3930  1.0640  2.6140
 7018SOL     H247254   6.393   6.557   6.854 -0.8608 -0.6519 -0.6892
 7019SOL    OH247255   0.821   7.257   6.666 -1.0283  0.2992 -0.1942
 7019SOL     H147256   0.785   7.325   6.608  1.8145  0.2761 -2.0728
 7019SOL     H247257   0.914   7.255   6.646 -0.6097 -2.3689  1.7332
 7020SOL    OH247258   3.266   4.547   0.139  0.6550 -0.0939  0.2170
 7020SOL     H147259   3.311   4.463   0.139  0.8771  0.0267  0.1999
 7020SOL     H247260   3.273   4.578   0.230  0.7905  0.0237  0.1665
 7021SOL    OH247261   1.823   5.856   6.623  0.2769 -0.2908  0.4665
 7021SOL     H147262   1.793   5.929   6.678  0.3349  0.4499 -0.4778
 7021SOL     H247263   1.914   5.841   6.650  0.7688  1.0209 -0.4126
 7022SOL    OH247264   4.955   7.419   0.430 -0.2029  0.1394 -0.3317
 7022SOL     H147265   5.001   7.353   0.378  0.1590 -0.3337  0.5806
 7022SOL     H247266   4.868   7.423   0.392  0.6906  1.2865 -2.2971
 7023SOL    OH247267   3.678   7.579   6.112 -0.2534  0.4435 -0.0253
 7023SOL     H147268   3.683   7.646   6.044  1.3210  0.4092  0.0383
 7023SOL     H247269   3.641   7.624   6.188 -1.2816  0.6709 -0.6457
 7024SOL    OH247270   1.463   3.185   8.221  0.4213  0.1765  0.1899
 7024SOL     H147271   1.431   3.274   8.237  1.4898  0.7339 -0.7498
 7024SOL     H247272   1.447   3.139   8.304 -0.1014  1.2406  0.6940
 7025SOL    OH247273   2.552   1.219   7.626  0.2642 -0.6558 -0.8065
 7025SOL     H147274   2.572   1.283   7.694  0.5318 -1.4491 -0.1366
 7025SOL     H247275   2.519   1.272   7.552  1.0319  0.3014 -0.4715
 7026SOL    OH247276   0.897   3.176   0.891 -0.1577 -0.1274 -0.0697
 7026SOL     H147277   0.934   3.252   0.847 -0.7550 -0.0049 -0.3580
 7026SOL     H247278   0.939   3.101   0.849 -0.5104 -0.0019 -0.6429
 7027SOL    OH247279   1.501   2.816   1.509 -0.3377  0.3684  0.8946
 7027SOL     H147280   1.444   2.791   1.582  1.8500  0.5895  2.7225
 7027SOL     H247281   1.584   2.840   1.550  0.6542  1.3896 -1.6042
 7028SOL    OH247282   6.458   7.866   7.832 -0.7530 -0.8734  0.5222
 7028SOL     H147283   6.392   7.881   7.899 -1.4192  0.1039 -0.3418
 7028SOL     H247284   6.416   7.891   7.750  0.8200  0.1662 -0.0005
 7029SOL    OH247285   1.976   5.809   0.586 -0.1394  0.0228 -0.4495
 7029SOL     H147286   1.967   5.849   0.500  0.4720  0.5393 -0.2789
 7029SOL     H247287   2.021   5.875   0.639  1.0390 -0.9527 -0.2083
 7030SOL    OH247288   5.672   0.819   1.374  0.0083  0.3781  0.2613
 7030SOL     H147289   5.655   0.803   1.282 -2.4336 -1.3343  0.9660
 7030SOL     H247290   5.626   0.900   1.394  0.7015  0.8543 -0.0480
 7031SOL    OH247291   0.125   0.532   1.912 -0.3815  0.7138  0.4297
 7031SOL     H147292   0.104   0.439   1.906  0.9941  0.4736 -1.1466
 7031SOL     H247293   0.115   0.565   1.823  0.0837  1.8683  0.7941
 7032SOL    OH247294   1.277   3.410   0.967 -0.3250 -0.2124  0.3424
 7032SOL     H147295   1.283   3.338   1.030  0.1860 -0.4862 -0.0162
 7032SOL     H247296   1.360   3.407   0.920 -0.6652  0.0592 -0.2743
 7033SOL    OH247297   3.370   6.053   1.261 -0.1683  0.1074  0.0817
 7033SOL     H147298   3.446   6.099   1.222  0.6447 -0.4174  1.0300
 7033SOL     H247299   3.314   6.124   1.292 -0.3679  0.5198 -1.1626
 7034SOL    OH247300   1.849   5.138   6.787 -0.0589  1.0751 -0.5778
 7034SOL     H147301   1.835   5.052   6.747  0.5738  0.5665  0.2764
 7034SOL     H247302   1.937   5.134   6.823 -0.8690  1.2380  1.5229
 7035SOL    OH247303   0.962   7.425   1.501 -0.2767  0.0180 -0.4045
 7035SOL     H147304   0.873   7.425   1.536 -0.8821  1.5251 -1.9299
 7035SOL     H247305   1.003   7.503   1.539 -0.0076  0.0321 -0.7219
 7036SOL    OH247306   7.688   0.197   0.117  0.7461 -0.2057  0.5749
 7036SOL     H147307   7.744   0.170   0.190  0.3909 -1.3726  0.4172
 7036SOL     H247308   7.720   0.147   0.043 -1.0308 -1.5022  0.6603
 7037SOL    OH247309   3.700   3.551   8.222  0.1013 -0.2365  0.3717
 7037SOL     H147310   3.655   3.619   8.172 -0.1406  0.4200  1.4600
 7037SOL     H247311   3.678   3.570   8.314 -0.4270 -2.1232  0.6517
 7038SOL    OH247312   5.337   0.236   0.709  0.1591 -0.6037 -0.4234
 7038SOL     H147313   5.342   0.314   0.654  0.5381  1.7061  2.7588
 7038SOL     H247314   5.276   0.178   0.664 -0.0122  1.4501 -2.9319
 7039SOL    OH247315   2.033   2.163   6.158  0.1519 -0.0669  0.4742
 7039SOL     H147316   2.083   2.212   6.222  1.7463 -1.2584  0.1777
 7039SOL     H247317   2.087   2.086   6.139 -1.6457 -1.2137 -0.0986
 7040SOL    OH247318   7.679   6.526   6.434 -0.0183 -0.2882  0.0541
 7040SOL     H147319   7.773   6.531   6.455  0.1148  1.2739 -0.8544
 7040SOL     H247320   7.639   6.493   6.514  1.2353 -0.3405  0.6813
 7041SOL    OH247321   4.826   4.477   6.289  0.4632 -0.0694 -0.0680
 7041SOL     H147322   4.776   4.396   6.296  2.4054 -1.1642  1.8305
 7041SOL     H247323   4.884   4.463   6.214 -0.1982  0.1589 -0.6315
 7042SOL    OH247324   5.639   0.936   7.591  0.0345  0.1599 -0.0248
 7042SOL     H147325   5.697   0.930   7.667 -0.0520 -1.7309 -0.0973
 7042SOL     H247326   5.565   0.880   7.613 -0.0403 -0.3206 -1.4628
 7043SOL    OH247327   5.021   2.827   1.225  0.3388  0.2462 -0.0661
 7043SOL     H147328   4.931   2.834   1.192 -0.8113 -0.5618  2.7449
 7043SOL     H247329   5.054   2.746   1.187  0.5035  1.3771 -2.4417
 7044SOL    OH247330   0.935   6.966   0.835 -0.4213 -0.0085  0.0277
 7044SOL     H147331   0.971   6.890   0.789 -2.7193  0.4132 -2.6132
 7044SOL     H247332   1.003   7.034   0.826  0.3168 -0.7815 -0.3254
 7045SOL    OH247333   6.684   0.979   1.254  0.9073  0.6429 -0.0800
 7045SOL     H147334   6.730   0.958   1.173  1.0343 -0.9413  0.3911
 7045SOL     H247335   6.752   1.015   1.311  1.1874  0.0554 -0.0407
 7046SOL    OH247336   3.434   0.436   1.453  0.7387  0.1471  0.0392
 7046SOL     H147337   3.351   0.392   1.434  0.7327  0.6275 -1.0524
 7046SOL     H247338   3.467   0.392   1.531  0.7540 -1.8361 -1.0558
 7047SOL    OH247339   6.538   4.743   2.555  0.1663 -0.4709 -0.0098
 7047SOL     H147340   6.503   4.819   2.601 -1.4797 -1.5165  0.5052
 7047SOL     H247341   6.547   4.772   2.464 -1.8426 -0.0846 -0.1064
 7048SOL    OH247342   3.362   6.402   0.938  0.1380 -0.3090  0.3075
 7048SOL     H147343   3.423   6.465   0.898 -1.9033  1.7849  0.3804
 7048SOL     H247344   3.302   6.456   0.989 -0.9805 -2.4503  1.3254
 7049SOL    OH247345   5.635   5.808   0.303 -0.0619  0.1805 -0.2790
 7049SOL     H147346   5.577   5.866   0.253 -1.2306  0.1461  1.0078
 7049SOL     H247347   5.602   5.814   0.393  2.5287  0.9005  0.6459
 7050SOL    OH247348   2.634   1.115   8.094 -0.0620 -0.6104  0.2191
 7050SOL     H147349   2.544   1.140   8.074  0.4770  0.7601 -0.5028
 7050SOL     H247350   2.673   1.193   8.134  1.1396 -0.8212 -0.5178
 7051SOL    OH247351   4.353   0.291   8.191  0.4414 -0.1802 -0.1810
 7051SOL     H147352   4.304   0.321   8.114 -0.3662 -0.0314  0.3775
 7051SOL     H247353   4.442   0.278   8.160  0.2183  0.3178 -1.0352
 7052SOL    OH247354   2.110   0.204   7.704 -0.0837 -0.4010 -0.3190
 7052SOL     H147355   2.119   0.192   7.799  1.6755 -1.3104 -0.5759
 7052SOL     H247356   2.162   0.282   7.685  0.8263 -1.0983 -0.7341
 7053SOL    OH247357   0.846   0.909   1.836 -0.4346  0.0332 -0.0757
 7053SOL     H147358   0.882   0.985   1.791  2.2259 -0.9879  0.2257
 7053SOL     H247359   0.793   0.946   1.907  1.3459  1.6125  0.4711
 7054SOL    OH247360   4.884   2.548   7.041 -0.3156  0.1668 -0.1646
 7054SOL     H147361   4.941   2.554   6.964 -0.8344  0.9969 -0.4894
 7054SOL     H247362   4.825   2.622   7.033 -2.0109 -1.1701 -0.2941
 7055SOL    OH247363   6.090   4.941   0.804  0.1367 -0.0678  0.0864
 7055SOL     H147364   6.112   4.857   0.763  2.1203 -0.0628  1.0696
 7055SOL     H247365   6.140   5.006   0.754  1.0188  0.1640  1.2610
 7056SOL    OH247366   5.571   5.218   6.360 -0.4708 -0.1803 -0.2907
 7056SOL     H147367   5.605   5.153   6.298  0.6566 -0.5331  0.6797
 7056SOL     H247368   5.482   5.189   6.379 -0.9919  0.1874 -2.0873
 7057SOL    OH247369   6.965   5.724   5.970 -0.2400 -0.4994  0.0826
 7057SOL     H147370   6.902   5.656   5.947  0.4782 -0.6792 -1.3985
 7057SOL     H247371   7.042   5.676   6.001 -0.2086 -0.3210  0.2843
 7058SOL    OH247372   6.981   1.176   6.028 -0.4876  0.0256  0.1655
 7058SOL     H147373   7.022   1.142   6.107 -0.2354 -0.3309 -0.1121
 7058SOL     H247374   6.965   1.098   5.974 -1.1956  0.1975  0.1159
 7059SOL    OH247375   7.005   2.864   7.242 -0.1467  0.5854  0.1506
 7059SOL     H147376   7.085   2.844   7.193 -0.0935  0.6441  0.2139
 7059SOL     H247377   7.014   2.815   7.324 -0.1050  0.7139  0.2227
 7060SOL    OH247378   2.682   0.538   2.338  0.0181  0.4955 -0.6058
 7060SOL     H147379   2.751   0.532   2.273  0.4238 -1.0537 -0.0715
 7060SOL     H247380   2.719   0.591   2.409  1.8780 -2.8444  1.0766
 7061SOL    OH247381   6.522   1.512   7.468 -0.1109  0.2153 -0.5228
 7061SOL     H147382   6.449   1.465   7.427  0.1754 -0.3991 -0.3319
 7061SOL     H247383   6.483   1.555   7.544 -0.3716  0.3012 -0.7004
 7062SOL    OH247384   2.367   2.750   0.283  0.0471 -0.1582  0.0437
 7062SOL     H147385   2.437   2.776   0.222  0.8058 -0.8441  0.6011
 7062SOL     H247386   2.312   2.690   0.232 -0.6408  1.0604 -0.6654
 7063SOL    OH247387   1.848   7.392   0.549  0.0500  0.5417  0.0561
 7063SOL     H147388   1.785   7.342   0.600  0.9841 -0.3022  0.3937
 7063SOL     H247389   1.848   7.350   0.463 -0.1270  0.7902 -0.0689
 7064SOL    OH247390   3.369   5.864   2.196  0.4876  0.1228 -0.1688
 7064SOL     H147391   3.297   5.904   2.146  1.0251  0.4658 -0.6670
 7064SOL     H247392   3.362   5.904   2.283  0.7606  0.9906 -0.5426
 7065SOL    OH247393   5.945   6.868   7.159 -0.0664 -0.4229 -0.3223
 7065SOL     H147394   5.862   6.865   7.111  0.2843 -0.8777 -0.9064
 7065SOL     H247395   5.923   6.836   7.247 -0.5266 -0.4662 -0.4499
 7066SOL    OH247396   0.368   5.038   2.013 -0.2627 -0.0265 -0.0772
 7066SOL     H147397   0.393   5.081   1.931 -2.8984  0.1068 -0.8567
 7066SOL     H247398   0.403   4.950   2.006 -0.0206  0.1502 -1.1389
 7067SOL    OH247399   4.890   5.594   2.646  0.8634  0.1710 -0.1394
 7067SOL     H147400   4.913   5.682   2.616 -1.5263  1.0422  0.5131
 7067SOL     H247401   4.938   5.584   2.728  1.7948  0.5307 -0.6289
 7068SOL    OH247402   4.927   7.746   0.187  0.5031  0.0370 -0.0238
 7068SOL     H147403   4.941   7.658   0.153  0.9453 -0.1732  0.6804
 7068SOL     H247404   4.967   7.745   0.274  0.0531  0.7788  0.2038
 7069SOL    OH247405   1.145   5.808   2.380 -0.1468  0.6081 -0.0392
 7069SOL     H147406   1.203   5.769   2.315  1.7620  1.5198  1.0750
 7069SOL     H247407   1.110   5.886   2.336  0.7591  0.9583 -0.1557
 7070SOL    OH247408   6.577   2.852   7.920  0.2725 -0.5813  0.0979
 7070SOL     H147409   6.599   2.832   7.829 -1.0591  1.4832 -0.7316
 7070SOL     H247410   6.482   2.844   7.924  0.1791  0.7810  0.9262
 7071SOL    OH247411   5.186   3.436   6.430 -0.2020 -0.0276 -0.3843
 7071SOL     H147412   5.116   3.391   6.477  1.3938 -1.1962  0.9351
 7071SOL     H247413   5.261   3.377   6.438  0.3281  0.1232 -3.7392
 7072SOL    OH247414   5.513   5.713   1.471 -0.8643  0.1089 -0.5599
 7072SOL     H147415   5.492   5.664   1.391 -0.9889  0.9569 -1.0418
 7072SOL     H247416   5.450   5.785   1.473 -1.4075 -0.3763  0.7372
 7073SOL    OH247417   3.905   0.402   7.015  0.1988  0.1708 -0.3990
 7073SOL     H147418   3.884   0.387   6.922  1.7387 -2.2901 -0.4022
 7073SOL     H247419   3.990   0.361   7.027  1.0036  2.3368  1.6445
 7074SOL    OH247420   0.875   6.826   6.298 -0.0857 -0.3605 -0.0983
 7074SOL     H147421   0.865   6.872   6.381  0.1017  1.1062 -0.8784
 7074SOL     H247422   0.804   6.860   6.243  1.5697  0.8722 -1.5134
 7075SOL    OH247423   2.929   2.505   7.782  0.2539 -0.3950  0.0231
 7075SOL     H147424   2.913   2.431   7.724 -1.8006  0.6084 -0.7160
 7075SOL     H247425   2.957   2.576   7.723  1.6457 -0.3814  0.6662
 7076SOL    OH247426   7.165   0.546   0.204 -0.0620 -0.6512 -0.1364
 7076SOL     H147427   7.085   0.582   0.241  1.2416 -0.1455  2.2848
 7076SOL     H247428   7.234   0.604   0.234  1.2347 -0.9750 -2.3331
 7077SOL    OH247429   5.993   1.205   6.847 -0.4839 -0.2630  0.8306
 7077SOL     H147430   6.055   1.170   6.783  0.6335  0.3602  1.5542
 7077SOL     H247431   5.998   1.144   6.921  0.3472  0.5561  1.4743
 7078SOL    OH247432   2.845   5.750   6.513  0.4258  0.3778 -0.0797
 7078SOL     H147433   2.856   5.681   6.579 -3.6303 -1.2929 -1.0413
 7078SOL     H247434   2.902   5.722   6.441  0.2809 -0.9471  0.3004
 7079SOL    OH247435   1.249   2.894   6.554  0.4355  0.5957  0.3803
 7079SOL     H147436   1.279   2.845   6.631  0.6358 -0.9150 -0.6395
 7079SOL     H247437   1.268   2.837   6.480  0.0019  1.9227 -0.7825
 7080SOL    OH247438   3.645   6.483   1.854  0.1462  0.4707  0.4618
 7080SOL     H147439   3.716   6.508   1.913  2.0697  1.2311 -2.0758
 7080SOL     H247440   3.625   6.392   1.877  1.2564  0.5646  1.8696
 7081SOL    OH247441   4.211   0.848   0.941  0.1783 -0.1001  0.6003
 7081SOL     H147442   4.302   0.852   0.970 -0.5015  3.7426  2.3934
 7081SOL     H247443   4.160   0.840   1.021 -1.1608 -0.8598 -0.3056
 7082SOL    OH247444   5.338   4.460   1.169  0.2845 -0.7910 -0.1406
 7082SOL     H147445   5.368   4.551   1.169 -0.7780 -0.4264 -0.8445
 7082SOL     H247446   5.278   4.454   1.094  0.4069 -2.0917 -0.1499
 7083SOL    OH247447   3.214   2.681   1.873 -0.4522 -0.0582 -0.1966
 7083SOL     H147448   3.122   2.686   1.847 -0.7342 -0.4762  0.6962
 7083SOL     H247449   3.214   2.621   1.948 -0.1233  3.7013  2.9354
 7084SOL    OH247450   2.421   7.244   0.684 -0.0686 -0.2255 -0.4820
 7084SOL     H147451   2.384   7.177   0.627  1.1055  0.0234 -1.5691
 7084SOL     H247452   2.362   7.248   0.760 -2.9043  1.0082 -2.6805
 7085SOL    OH247453   7.895   1.992   7.654  0.7758  1.1059 -0.0632
 7085SOL     H147454   7.945   2.057   7.603  0.4853  0.4673 -1.1800
 7085SOL     H247455   7.957   1.923   7.673  0.2503  0.1492 -1.7478
 7086SOL    OH247456   5.759   3.279   7.840  0.0686 -0.3047 -0.3885
 7086SOL     H147457   5.674   3.256   7.802  0.1551  1.0447 -1.4527
 7086SOL     H247458   5.755   3.246   7.930 -1.1308 -1.2868 -0.7913
 7087SOL    OH247459   1.739   6.340   6.621 -0.3632 -0.8745  0.4059
 7087SOL     H147460   1.684   6.383   6.686  0.1454  0.9932 -0.3496
 7087SOL     H247461   1.828   6.353   6.653 -0.1228 -0.1080 -0.5491
 7088SOL    OH247462   3.177   6.793   6.311  0.0725  0.0011 -0.2035
 7088SOL     H147463   3.212   6.782   6.222 -1.3940 -0.6671 -0.7260
 7088SOL     H247464   3.230   6.736   6.365  1.3204  0.8118 -0.5564
 7089SOL    OH247465   5.549   1.954   1.845  0.3172 -0.6998 -0.2406
 7089SOL     H147466   5.629   1.907   1.820  1.1963  0.5185  0.1823
 7089SOL     H247467   5.576   2.046   1.848 -0.1910 -0.6127  3.3992
 7090SOL    OH247468   6.346   1.614   8.239 -0.1053 -0.7635 -0.2436
 7090SOL     H147469   6.391   1.624   8.322 -2.2154 -0.3390  0.8794
 7090SOL     H247470   6.318   1.522   8.238 -0.3626 -0.6842 -0.3434
 7091SOL    OH247471   3.723   0.874   0.720  0.4408 -0.0122 -0.3153
 7091SOL     H147472   3.798   0.851   0.774 -0.1214  1.7037  1.2339
 7091SOL     H247473   3.654   0.814   0.748  0.0989  0.9881  1.0224
 7092SOL    OH247474   3.325   5.208   7.952  0.0169  0.1392 -0.0212
 7092SOL     H147475   3.236   5.199   7.917  0.4839 -0.6589 -1.0592
 7092SOL     H247476   3.314   5.245   8.039 -1.4268 -1.2898  0.4185
 7093SOL    OH247477   5.112   2.668   6.880  0.0703  0.5456 -0.3085
 7093SOL     H147478   5.142   2.749   6.837 -0.1433  1.0370  0.4568
 7093SOL     H247479   5.121   2.686   6.973 -4.0299  1.3059  0.0410
 7094SOL    OH247480   4.302   1.652   8.109 -0.1280  0.1590 -0.1198
 7094SOL     H147481   4.344   1.566   8.105 -1.4985 -0.5510  0.4585
 7094SOL     H247482   4.312   1.679   8.201  0.3643  0.6522 -0.3172
 7095SOL    OH247483   4.456   6.877   2.062 -0.2527 -0.1826 -0.3867
 7095SOL     H147484   4.393   6.949   2.051  1.0580  1.0029 -0.2693
 7095SOL     H247485   4.405   6.807   2.103 -1.2633  1.1161  0.6415
 7096SOL    OH247486   6.245   2.562   1.094 -0.0550 -0.8241 -0.3072
 7096SOL     H147487   6.190   2.528   1.164 -0.5254 -1.8859 -1.1678
 7096SOL     H247488   6.322   2.597   1.138 -0.4098 -1.3397  0.7384
 7097SOL    OH247489   0.927   6.417   6.448  0.6214  0.0035 -0.7122
 7097SOL     H147490   0.983   6.492   6.466  0.8701  0.1053 -1.8636
 7097SOL     H247491   0.988   6.345   6.431  0.4070  0.1647 -2.1756
 7098SOL    OH247492   0.836   1.929   7.124  0.1049 -0.3641  0.1459
 7098SOL     H147493   0.745   1.932   7.093  0.1262 -0.9936  0.0199
 7098SOL     H247494   0.860   2.021   7.136 -1.0285 -0.2354  1.5593
 7099SOL    OH247495   3.317   5.602   0.893 -0.1007 -0.1943 -0.3359
 7099SOL     H147496   3.285   5.523   0.935  3.7504 -0.6650  1.9845
 7099SOL     H247497   3.356   5.653   0.963 -2.7183  3.9896 -1.7510
 7100SOL    OH247498   5.782   7.920   7.888  0.2967  0.0708  1.0805
 7100SOL     H147499   5.858   7.959   7.931  0.7458  3.2780 -2.4291
 7100SOL     H247500   5.707   7.958   7.934  0.7812  1.6552  0.5942
 7101SOL    OH247501   5.915   6.973   7.932 -0.4975  0.2139  0.4526
 7101SOL     H147502   5.960   6.889   7.924 -0.9078 -0.0228  0.5784
 7101SOL     H247503   5.898   7.000   7.842 -0.3966  0.1434  0.4123
 7102SOL    OH247504   3.503   0.244   0.792 -0.3236 -0.0987  0.2863
 7102SOL     H147505   3.535   0.324   0.833 -1.4705  0.1126  0.7861
 7102SOL     H247506   3.415   0.232   0.827 -0.7443 -0.7439 -0.9440
 7103SOL    OH247507   2.813   7.960   2.189  0.3707 -0.4287  0.0930
 7103SOL     H147508   2.730   7.927   2.223  0.0824  1.3351  1.1344
 7103SOL     H247509   2.877   7.941   2.257  0.7355 -1.2920 -0.4774
 7104SOL    OH247510   5.614   1.384   0.672  0.2502 -0.2024  0.1847
 7104SOL     H147511   5.659   1.443   0.733 -0.0008  0.6487 -0.4341
 7104SOL     H247512   5.628   1.297   0.708  1.0891  0.1864  0.8317
 7105SOL    OH247513   2.022   3.419   7.797 -0.4159 -0.3858 -0.3147
 7105SOL     H147514   2.071   3.379   7.869  2.9831  2.4246 -0.9178
 7105SOL     H247515   1.975   3.492   7.839  1.5963  1.2759 -0.8379
 7106SOL    OH247516   2.903   4.973   8.204 -0.0468 -0.3626 -0.3038
 7106SOL     H147517   2.969   4.938   8.263  1.5193  1.0229 -1.1558
 7106SOL     H247518   2.833   5.005   8.261  1.1870  0.4457  0.7692
 7107SOL    OH247519   2.085   6.660   0.614 -0.6124 -0.2523  0.8435
 7107SOL     H147520   2.015   6.616   0.565  1.3056 -1.5655 -0.8077
 7107SOL     H247521   2.117   6.593   0.674  1.3164 -0.6968 -0.6282
 7108SOL    OH247522   3.223   1.421   8.162 -0.0887  0.2757  0.2352
 7108SOL     H147523   3.282   1.479   8.210  0.3962  0.0139 -0.0358
 7108SOL     H247524   3.176   1.479   8.102 -0.3095  0.5263  0.6551
 7109SOL    OH247525   4.015   1.722   2.095 -1.2856 -0.2181 -0.1583
 7109SOL     H147526   4.056   1.638   2.074  0.1551  0.1497  1.0566
 7109SOL     H247527   3.923   1.701   2.110 -1.3180 -1.2727 -1.7059
 7110SOL    OH247528   1.404   6.085   7.916  0.8379  0.5900  0.0614
 7110SOL     H147529   1.431   6.029   7.843  0.8085 -0.2368  0.6721
 7110SOL     H247530   1.317   6.116   7.892  0.2995 -0.7069  0.3193
 7111SOL    OH247531   5.984   3.915   6.749 -0.0164  0.4283 -0.6927
 7111SOL     H147532   6.078   3.924   6.767 -0.0298  0.7875 -0.8081
 7111SOL     H247533   5.980   3.875   6.662  0.0520 -1.4350  0.1378
 7112SOL    OH247534   0.233   2.347   7.417  0.1185 -0.1790  0.0611
 7112SOL     H147535   0.287   2.398   7.357 -0.5216  0.0573 -0.3214
 7112SOL     H247536   0.283   2.347   7.499  0.3739  0.6229 -0.0820
 7113SOL    OH247537   2.059   3.906   7.170 -0.2746  0.6639  0.3865
 7113SOL     H147538   1.989   3.876   7.227  0.9854  0.7746  2.0359
 7113SOL     H247539   2.103   3.975   7.220  1.0373  0.5586 -0.5836
 7114SOL    OH247540   7.278   5.481   2.142 -0.5639 -0.1279 -0.2253
 7114SOL     H147541   7.211   5.525   2.194  0.0775 -0.7339  1.1093
 7114SOL     H247542   7.348   5.546   2.132 -0.3914 -0.2372  0.2519
 7115SOL    OH247543   2.002   2.090   1.369  0.0583 -0.0316 -0.3332
 7115SOL     H147544   1.956   2.015   1.331  0.0200  0.4123 -1.1875
 7115SOL     H247545   2.081   2.052   1.406 -0.1421 -0.5537 -0.4255
 7116SOL    OH247546   6.904   6.989   0.326 -0.2404 -0.3113  0.4481
 7116SOL     H147547   6.819   6.973   0.285  0.1275 -1.8468  0.2485
 7116SOL     H247548   6.968   6.958   0.262  0.4207 -0.3687  1.1291
 7117SOL    OH247549   4.619   0.886   7.845  0.0873  0.6962  0.4816
 7117SOL     H147550   4.559   0.853   7.779 -1.0885  0.5387  1.6184
 7117SOL     H247551   4.635   0.811   7.903  1.7610  0.5964 -0.0698
 7118SOL    OH247552   6.037   2.362   0.121 -0.0478  0.4364 -0.1518
 7118SOL     H147553   6.072   2.338   0.034 -1.7609 -1.3072 -0.3919
 7118SOL     H247554   5.952   2.401   0.103 -1.0328 -1.2126  0.8142
 7119SOL    OH247555   2.288   7.379   6.693  0.0662  0.1170  0.1155
 7119SOL     H147556   2.271   7.392   6.786 -0.0313 -1.8965  0.3968
 7119SOL     H247557   2.214   7.422   6.649 -0.6629 -0.1881  1.0244
 7120SOL    OH247558   4.492   6.387   6.716  0.3850  0.2305  0.3543
 7120SOL     H147559   4.526   6.445   6.784  1.1606  1.3016 -0.9193
 7120SOL     H247560   4.419   6.435   6.677  0.8617  0.2336 -0.5367
 7121SOL    OH247561   7.622   0.207   7.397 -0.5977  0.4074 -0.2317
 7121SOL     H147562   7.568   0.244   7.327  0.8733 -0.6248 -1.9523
 7121SOL     H247563   7.708   0.193   7.357 -0.5339 -3.0236  0.8956
 7122SOL    OH247564   0.656   5.648   0.537  0.0276 -0.1247 -0.9501
 7122SOL     H147565   0.620   5.559   0.538 -0.5367  0.1042 -0.2982
 7122SOL     H247566   0.627   5.686   0.620  3.2179 -0.5316  0.4129
 7123SOL    OH247567   3.866   5.036   1.038  0.1372  0.5908 -0.0505
 7123SOL     H147568   3.839   4.983   1.113  0.2486 -1.4097 -1.3914
 7123SOL     H247569   3.955   5.007   1.019  0.0829  1.0249 -0.9928
 7124SOL    OH247570   3.594   6.821   2.464 -0.6167  0.4627  0.0466
 7124SOL     H147571   3.543   6.900   2.449 -0.9060  0.1814 -0.4717
 7124SOL     H247572   3.594   6.775   2.379  1.3346  0.9375 -0.2403
 7125SOL    OH247573   6.429   7.623   7.227  0.1023  0.5110 -0.7070
 7125SOL     H147574   6.455   7.567   7.299  0.6333 -0.0299 -1.3124
 7125SOL     H247575   6.505   7.625   7.169 -0.4324  0.6759 -1.4108
 7126SOL    OH247576   4.703   0.614   1.520 -0.3027  0.0442  0.1038
 7126SOL     H147577   4.780   0.561   1.498 -0.2199  0.7254 -1.3103
 7126SOL     H247578   4.629   0.564   1.484 -0.5311 -0.6015  1.4463
 7127SOL    OH247579   4.801   6.699   6.308 -0.0350  0.1905 -0.2009
 7127SOL     H147580   4.708   6.687   6.291 -0.1870  0.0907  0.7118
 7127SOL     H247581   4.833   6.611   6.331  1.2417 -0.7728 -4.9748
 7128SOL    OH247582   4.786   6.427   6.218 -0.1475  0.4272  0.3146
 7128SOL     H147583   4.715   6.487   6.194  0.8271  1.4181 -0.1128
 7128SOL     H247584   4.760   6.392   6.304 -1.8687 -0.3631 -0.5061
 7129SOL    OH247585   2.148   1.361   7.212  0.1535 -0.5999  0.0852
 7129SOL     H147586   2.115   1.395   7.295  2.9283  0.8957  0.6187
 7129SOL     H247587   2.142   1.266   7.222 -0.5333 -0.4239  1.5694
 7130SOL    OH247588   3.598   7.052   8.051 -0.3169 -0.2093  0.4456
 7130SOL     H147589   3.684   7.028   8.085 -1.3103 -1.6456  2.0476
 7130SOL     H247590   3.568   7.122   8.110 -0.2710  0.2677 -0.0897
 7131SOL    OH247591   7.563   2.812   7.574 -0.7414 -0.3990 -0.4574
 7131SOL     H147592   7.625   2.885   7.579  0.0232 -1.1183  0.6326
 7131SOL     H247593   7.610   2.738   7.612 -2.1394 -1.0475  0.0306
 7132SOL    OH247594   2.575   2.676   0.787  0.1156 -0.4132 -0.7890
 7132SOL     H147595   2.526   2.737   0.731  0.6439  0.6723 -0.0709
 7132SOL     H247596   2.533   2.683   0.873  0.1273 -1.1335 -0.7200
 7133SOL    OH247597   4.454   4.981   0.756 -0.3538 -0.1848 -0.1874
 7133SOL     H147598   4.521   4.912   0.756  1.1659  1.2678 -0.0996
 7133SOL     H247599   4.372   4.934   0.771  0.4851 -2.1441 -1.4934
 7134SOL    OH247600   4.921   6.102   7.831 -0.4623 -0.1311 -0.0564
 7134SOL     H147601   4.883   6.182   7.868  0.1314 -1.0611  2.6957
 7134SOL     H247602   5.011   6.127   7.807 -0.3995  0.1222  0.4356
 7135SOL    OH247603   6.669   2.801   5.602  0.1693 -0.2086 -0.1887
 7135SOL     H147604   6.659   2.890   5.567 -0.4348 -0.8609 -1.7486
 7135SOL     H247605   6.764   2.785   5.599  0.1367 -0.2434 -1.5821
 7136SOL    OH247606   5.853   2.514   7.265 -0.4960  0.0282 -0.2357
 7136SOL     H147607   5.759   2.527   7.276 -0.5715 -0.6169 -0.0810
 7136SOL     H247608   5.877   2.570   7.191 -0.7873  1.0498  0.4334
 7137SOL    OH247609   6.446   6.721   6.354  0.5842  0.1102 -0.5820
 7137SOL     H147610   6.489   6.655   6.299  1.0990 -0.2505  0.2408
 7137SOL     H247611   6.369   6.676   6.389  1.5329 -0.4492  0.8747
 7138SOL    OH247612   4.155   0.069   0.935 -0.1551 -0.6210 -0.3536
 7138SOL     H147613   4.157   0.161   0.961  1.1014 -0.9834  0.8526
 7138SOL     H247614   4.227   0.060   0.872 -1.5121 -0.3542 -1.9851
 7139SOL    OH247615   5.242   0.545   1.693  0.1638  0.1098 -0.3013
 7139SOL     H147616   5.320   0.594   1.668  1.5090 -1.5211  0.5512
 7139SOL     H247617   5.217   0.580   1.778 -0.6317  1.3127 -1.0259
 7140SOL    OH247618   7.485   0.976   1.051 -0.2193  0.1365 -0.1380
 7140SOL     H147619   7.527   1.061   1.061 -0.4272  0.2097  0.1106
 7140SOL     H247620   7.524   0.921   1.119  0.3509 -0.1405 -0.6801
 7141SOL    OH247621   2.571   1.730   0.165  0.1876 -0.2547  0.4561
 7141SOL     H147622   2.475   1.725   0.165  0.2232 -0.9977 -0.6914
 7141SOL     H247623   2.591   1.808   0.114  0.1747  0.4299  1.4875
 7142SOL    OH247624   1.022   5.852   2.674 -0.1942  0.6947 -0.0676
 7142SOL     H147625   1.024   5.933   2.622  1.3559  0.7181 -0.0139
 7142SOL     H247626   1.105   5.853   2.721  0.4810 -1.6395 -1.1749
 7143SOL    OH247627   0.333   5.762   1.920 -0.2445 -0.2092 -0.0515
 7143SOL     H147628   0.374   5.825   1.861 -0.0965  0.1670  0.4471
 7143SOL     H247629   0.402   5.698   1.939 -0.4499 -0.6310 -0.7060
 7144SOL    OH247630   2.921   7.272   2.315  0.0545  0.1901 -1.1741
 7144SOL     H147631   2.838   7.255   2.358  0.2574  0.9929 -0.4708
 7144SOL     H247632   2.919   7.217   2.236 -1.7798  1.3656 -1.9586
 7145SOL    OH247633   6.131   6.390   6.819  0.1384  0.4849 -0.3273
 7145SOL     H147634   6.066   6.440   6.769  1.0730  1.4196 -0.6329
 7145SOL     H247635   6.114   6.413   6.910  0.2319  0.9655 -0.4298
 7146SOL    OH247636   1.115   2.781   2.291 -0.8020 -0.3240  0.4076
 7146SOL     H147637   1.174   2.717   2.331  0.8768  0.6817 -0.3708
 7146SOL     H247638   1.100   2.845   2.361  0.4892  0.3532  0.0902
 7147SOL    OH247639   3.029   1.465   0.929  0.1041 -0.2959 -0.1927
 7147SOL     H147640   3.004   1.535   0.989 -0.2811 -0.4143 -0.2166
 7147SOL     H247641   3.121   1.482   0.909  0.0744  0.0660 -0.0123
 7148SOL    OH247642   1.412   0.942   1.135  0.1104  0.9755 -0.3247
 7148SOL     H147643   1.361   1.006   1.084 -0.2227  1.8736  1.1061
 7148SOL     H247644   1.498   0.983   1.145 -0.2241  1.3858  0.9313
 7149SOL    OH247645   2.382   7.140   7.859  0.2883  0.2448  0.4555
 7149SOL     H147646   2.413   7.230   7.868  1.7750 -0.2298  0.2513
 7149SOL     H247647   2.355   7.134   7.767  1.6323  0.0549  0.0609
 7150SOL    OH247648   6.796   3.600   1.173 -0.0672  0.2336  0.2015
 7150SOL     H147649   6.722   3.616   1.115 -0.1663 -1.5661 -0.1778
 7150SOL     H247650   6.814   3.686   1.212 -1.6291  0.9193 -0.5364
 7151SOL    OH247651   6.371   5.124   6.690 -0.6262 -0.2572  0.6542
 7151SOL     H147652   6.394   5.207   6.648  2.7478 -0.9463  1.0032
 7151SOL     H247653   6.333   5.071   6.619  1.7035 -0.1149 -0.7561
 7152SOL    OH247654   3.967   0.613   0.108 -0.3344 -0.3807  0.1665
 7152SOL     H147655   3.884   0.566   0.093 -0.5719  0.0326  0.1896
 7152SOL     H247656   3.957   0.695   0.060 -0.5066  0.3036  1.3751
 7153SOL    OH247657   2.157   5.176   2.192 -0.4012  0.2455 -0.3842
 7153SOL     H147658   2.176   5.098   2.245 -1.2740  0.0610 -0.3393
 7153SOL     H247659   2.243   5.209   2.166 -0.0229 -0.6433 -0.2664
 7154SOL    OH247660   7.414   5.035   6.465 -0.2410  0.5272  0.3778
 7154SOL     H147661   7.365   5.011   6.544  0.1946  0.1692  0.5430
 7154SOL     H247662   7.467   5.111   6.492 -0.2751  0.5549  0.3654
 7155SOL    OH247663   3.625   4.877   2.044 -0.2407  0.1818 -0.0032
 7155SOL     H147664   3.713   4.845   2.060 -1.4354 -2.5386  1.4971
 7155SOL     H247665   3.595   4.825   1.969 -1.1722 -0.1759  0.6091
 7156SOL    OH247666   0.462   7.747   6.833 -0.0175 -0.1298 -0.1230
 7156SOL     H147667   0.448   7.801   6.911  0.2839 -0.3277  0.0678
 7156SOL     H247668   0.416   7.665   6.853  1.0308 -0.6109  0.3199
 7157SOL    OH247669   4.229   3.815   7.572  0.0975 -0.6795  0.0183
 7157SOL     H147670   4.305   3.869   7.595  0.1356 -0.8273  0.2428
 7157SOL     H247671   4.243   3.792   7.480  0.2435 -0.5700  0.0127
 7158SOL    OH247672   6.626   3.794   7.206 -0.1441  0.3383 -0.2999
 7158SOL     H147673   6.668   3.720   7.251  1.8828  1.3452 -0.4996
 7158SOL     H247674   6.698   3.842   7.166 -1.6132  1.4651 -1.6481
 7159SOL    OH247675   2.162   5.502   1.401 -0.2000 -0.4116  0.0237
 7159SOL     H147676   2.160   5.424   1.456  0.7217 -1.5834 -1.5582
 7159SOL     H247677   2.211   5.566   1.452 -0.8466 -0.8998  1.2857
 7160SOL    OH247678   2.372   4.446   6.592  0.3313 -0.0482 -0.0585
 7160SOL     H147679   2.305   4.508   6.565  0.7603  0.0463 -0.9059
 7160SOL     H247680   2.455   4.489   6.571  0.7146  0.5192  2.4264
 7161SOL    OH247681   7.701   5.150   2.520 -0.3055  0.1138 -0.1460
 7161SOL     H147682   7.626   5.196   2.483 -1.2689 -0.9467  0.4492
 7161SOL     H247683   7.672   5.059   2.529  1.3057 -0.4789 -0.6029
 7162SOL    OH247684   5.065   5.164   0.190 -0.2467  0.2042  0.3233
 7162SOL     H147685   5.083   5.081   0.146 -0.4498  0.2878  0.0825
 7162SOL     H247686   5.010   5.141   0.264  0.1226  0.0583  0.5535
 7163SOL    OH247687   4.415   2.966   1.140 -0.2575  0.2917 -0.4108
 7163SOL     H147688   4.444   2.876   1.124 -1.2253 -0.1063  0.0895
 7163SOL     H247689   4.322   2.966   1.118  0.2553  1.7679 -2.7917
 7164SOL    OH247690   6.784   2.117   6.714  1.0540 -0.7114 -0.0247
 7164SOL     H147691   6.769   2.074   6.630  0.8371  1.5816 -1.2180
 7164SOL     H247692   6.877   2.137   6.714  1.0457 -0.6793  0.2569
 7165SOL    OH247693   3.927   4.571   1.038 -0.5027 -1.3845  0.4660
 7165SOL     H147694   3.892   4.555   0.950  0.6936 -1.6465  0.0264
 7165SOL     H247695   3.851   4.594   1.091 -1.2200 -1.1547 -0.6607
 7166SOL    OH247696   3.721   0.241   1.844  0.2830 -0.1777 -0.1197
 7166SOL     H147697   3.750   0.330   1.824  0.6287  0.9621  4.7972
 7166SOL     H247698   3.802   0.195   1.869 -0.1690 -1.3075 -0.6969
 7167SOL    OH247699   5.714   0.799   6.204 -0.1695  0.6658  0.1903
 7167SOL     H147700   5.759   0.867   6.155  0.6108  1.2320  1.6601
 7167SOL     H247701   5.627   0.836   6.222 -0.0263  0.9541  0.2895
 7168SOL    OH247702   6.104   7.072   7.230  0.5734  0.2469 -0.6176
 7168SOL     H147703   6.064   7.098   7.313  1.5441  1.7255 -0.5945
 7168SOL     H247704   6.046   7.004   7.196  0.9983 -1.5220  2.0132
 7169SOL    OH247705   4.049   5.802   7.375  0.4523  0.1939 -0.0521
 7169SOL     H147706   4.045   5.707   7.386 -2.3190  0.2921  0.2201
 7169SOL     H247707   4.110   5.832   7.443 -1.5933 -1.0688  2.4138
 7170SOL    OH247708   6.097   4.435   7.735  0.5469  0.3038  0.4366
 7170SOL     H147709   6.086   4.417   7.642 -1.8829  0.2463  0.6905
 7170SOL     H247710   6.136   4.355   7.770  2.1313  0.5831 -0.6179
 7171SOL    OH247711   5.525   3.043   0.479  0.2205 -0.2497  0.1478
 7171SOL     H147712   5.500   3.019   0.568  1.6596 -1.1351  0.3365
 7171SOL     H247713   5.467   2.992   0.423 -1.5593  1.2889  0.5743
 7172SOL    OH247714   6.014   1.344   7.249 -0.0144 -0.9435  0.1253
 7172SOL     H147715   5.944   1.280   7.235  0.7647 -1.3853 -1.9222
 7172SOL     H247716   6.046   1.363   7.161  0.7407  1.1733  0.8436
 7173SOL    OH247717   0.090   4.174   1.904 -0.1583 -0.0305  0.1590
 7173SOL     H147718  -0.000   4.172   1.936 -0.0610  1.2501  0.5083
 7173SOL     H247719   0.088   4.236   1.831  0.5760  0.4796  0.5744
 7174SOL    OH247720   4.604   5.156   1.208 -0.6126  0.3630 -0.0173
 7174SOL     H147721   4.633   5.230   1.154 -3.0355  2.1310  1.0178
 7174SOL     H247722   4.573   5.091   1.145 -0.9589  1.3106 -0.8433
 7175SOL    OH247723   1.032   4.304   6.524  0.5066 -0.6781  0.0707
 7175SOL     H147724   1.059   4.396   6.521 -0.2638 -0.4608 -0.3599
 7175SOL     H247725   0.938   4.306   6.506  0.5527 -1.5807 -0.2918
 7176SOL    OH247726   6.697   4.633   6.269 -0.0851  0.3910  0.2985
 7176SOL     H147727   6.621   4.599   6.317 -0.8238 -0.5988 -1.5341
 7176SOL     H247728   6.772   4.587   6.306 -0.5328  0.3224  1.1337
 7177SOL    OH247729   5.264   1.366   6.372  0.3681  0.4907 -1.0241
 7177SOL     H147730   5.339   1.307   6.384  0.4156  0.0804 -3.0619
 7177SOL     H247731   5.299   1.454   6.387  1.3289  0.3200 -2.2512
 7178SOL    OH247732   7.125   2.077   0.719  0.0210  0.4103  0.1393
 7178SOL     H147733   7.041   2.070   0.764 -0.7580  0.5398 -1.2666
 7178SOL     H247734   7.122   2.008   0.652  2.0544 -1.2481  1.6804
 7179SOL    OH247735   2.891   5.735   0.081 -0.6005 -0.3781  0.1419
 7179SOL     H147736   2.831   5.663   0.063 -1.9991  0.8352 -0.1527
 7179SOL     H247737   2.978   5.695   0.077 -1.3609 -2.0968  0.2573
 7180SOL    OH247738   6.527   4.510   2.983 -0.2178  0.3261 -0.1740
 7180SOL     H147739   6.564   4.453   3.050  0.3756  0.1317 -0.6596
 7180SOL     H247740   6.437   4.525   3.011 -1.2069 -2.9462 -1.3289
 7181SOL    OH247741   4.997   3.160   6.891  0.1501  0.3899 -0.2508
 7181SOL     H147742   4.919   3.104   6.882  0.0510  0.3111  0.9724
 7181SOL     H247743   5.027   3.173   6.801 -0.2034 -1.0996 -0.6102
 7182SOL    OH247744   7.729   6.846   5.650  0.2996 -0.0242  0.1703
 7182SOL     H147745   7.652   6.891   5.685  0.6564  1.5496 -1.0183
 7182SOL     H247746   7.708   6.753   5.659 -0.4608  0.3485  2.6688
 7183SOL    OH247747   2.564   1.999   2.400 -0.0656  0.0988 -0.2148
 7183SOL     H147748   2.576   2.092   2.383  2.2795 -0.3144 -0.9181
 7183SOL     H247749   2.537   1.961   2.316 -1.3437  0.1679  0.1459
 7184SOL    OH247750   6.624   4.500   2.713 -0.2793 -0.1693 -0.1760
 7184SOL     H147751   6.594   4.585   2.680 -0.6881 -0.3808 -0.3479
 7184SOL     H247752   6.614   4.507   2.808  2.1714  0.9323  0.0401
 7185SOL    OH247753   6.522   2.680   7.172  0.0378 -0.6537  0.2210
 7185SOL     H147754   6.430   2.693   7.195 -0.0202  0.1324 -0.4380
 7185SOL     H247755   6.570   2.739   7.231 -0.2106  2.4735 -2.6190
 7186SOL    OH247756   0.232   3.443   7.346  0.0261 -0.6384  0.0044
 7186SOL     H147757   0.245   3.359   7.388 -1.0267 -1.3141 -0.9933
 7186SOL     H247758   0.305   3.451   7.285 -0.8957 -1.6850 -1.2487
 7187SOL    OH247759   0.597   5.398   0.246  0.3236 -0.6340 -0.4408
 7187SOL     H147760   0.538   5.444   0.186  1.2728 -1.5655 -2.1466
 7187SOL     H247761   0.540   5.367   0.316 -0.7985  0.5939 -0.7821
 7188SOL    OH247762   1.557   6.678   7.828  0.6183  0.2615  0.4064
 7188SOL     H147763   1.532   6.586   7.834 -1.6252  0.7527 -1.0043
 7188SOL     H247764   1.623   6.681   7.758  2.0531 -0.4975  1.6860
 7189SOL    OH247765   7.485   7.581   6.959 -0.5233  0.6578 -0.2709
 7189SOL     H147766   7.463   7.522   7.031 -0.1866 -0.6484 -1.2117
 7189SOL     H247767   7.578   7.598   6.969 -0.4696  0.4505 -0.3906
 7190SOL    OH247768   5.274   5.892   2.235  0.1148  1.0328  0.6612
 7190SOL     H147769   5.180   5.907   2.249  0.2259  0.2796  2.4221
 7190SOL     H247770   5.312   5.901   2.323  1.4645 -0.2714  0.2211
 7191SOL    OH247771   7.104   0.616   8.094  0.3417 -0.2462  0.0867
 7191SOL     H147772   7.176   0.571   8.138 -0.4539 -0.1332  1.5047
 7191SOL     H247773   7.099   0.572   8.008  1.6192 -0.7322  0.2371
 7192SOL    OH247774   2.845   1.652   1.668  0.3294  0.0184 -0.1723
 7192SOL     H147775   2.828   1.728   1.723 -1.6611 -0.0701 -0.6460
 7192SOL     H247776   2.903   1.685   1.598  0.4826  0.7918  0.3128
 7193SOL    OH247777   3.469   0.288   7.529  0.9351 -0.3523 -0.4850
 7193SOL     H147778   3.487   0.382   7.520 -1.2160 -0.0890 -2.3759
 7193SOL     H247779   3.546   0.245   7.492  1.9574  0.6491  0.4509
 7194SOL    OH247780   5.522   6.516   1.084  0.0967 -0.4885 -0.2218
 7194SOL     H147781   5.437   6.519   1.040  0.2731 -0.1356 -0.5402
 7194SOL     H247782   5.524   6.430   1.127 -0.1727 -0.7352 -0.7011
 7195SOL    OH247783   5.102   2.315   7.165 -0.5180 -0.1613 -0.0335
 7195SOL     H147784   5.012   2.286   7.156 -0.4456 -0.4196  0.0591
 7195SOL     H247785   5.141   2.252   7.226 -0.2957 -0.0109 -0.0205
 7196SOL    OH247786   5.343   1.589   7.395 -0.1926  0.1258  0.8436
 7196SOL     H147787   5.262   1.637   7.414 -0.8584 -0.6130 -0.0201
 7196SOL     H247788   5.404   1.655   7.364 -1.8205  0.1878 -2.5793
 7197SOL    OH247789   5.643   0.503   6.786  0.2491  0.7410 -0.1197
 7197SOL     H147790   5.608   0.469   6.869  0.0245  0.7999 -0.1875
 7197SOL     H247791   5.736   0.514   6.801  0.5335 -0.9914 -0.4528
 7198SOL    OH247792   0.249   6.902   7.177 -0.2243  0.2330 -0.6427
 7198SOL     H147793   0.185   6.919   7.246 -0.8084  0.9934 -1.3569
 7198SOL     H247794   0.231   6.812   7.150  0.3851 -0.2626  0.5802
 7199SOL    OH247795   2.002   3.304   1.488 -0.1055  0.1283  0.1078
 7199SOL     H147796   2.025   3.367   1.421 -1.2650  1.5080  0.9612
 7199SOL     H247797   1.921   3.339   1.527  0.8402 -0.3066  2.5931
 7200SOL    OH247798   5.883   7.286   1.284  0.1644 -0.0527 -0.2077
 7200SOL     H147799   5.874   7.366   1.232 -0.9126 -1.9578 -3.0605
 7200SOL     H247800   5.977   7.267   1.283  0.2891  0.5881 -0.4429
 7201SOL    OH247801   1.692   7.649   8.284 -0.0334  0.3482 -0.0373
 7201SOL     H147802   1.727   7.673   8.198 -1.9241 -1.9390 -1.5004
 7201SOL     H247803   1.698   7.554   8.287 -1.2368  0.3047  1.8164
 7202SOL    OH247804   2.075   7.389   0.751  0.1682 -0.7357  0.1050
 7202SOL     H147805   2.054   7.356   0.839  0.0533 -0.5922  0.1307
 7202SOL     H247806   2.005   7.354   0.695  0.9736 -1.9494 -0.1725
 7203SOL    OH247807   7.900   3.031   1.782  0.2203  0.4685 -0.1745
 7203SOL     H147808   7.881   3.029   1.688  1.1541  1.2871 -0.3888
 7203SOL     H247809   7.924   3.122   1.799  0.3176  0.2588  0.8082
 7204SOL    OH247810   4.761   5.613   0.985  0.2288 -0.0761 -0.2211
 7204SOL     H147811   4.722   5.693   0.950 -1.7712 -0.8423  0.2091
 7204SOL     H247812   4.686   5.556   1.004  1.3941 -0.5589  3.1399
 7205SOL    OH247813   7.477   4.647   0.941  0.0793  0.3808  0.1824
 7205SOL     H147814   7.547   4.659   0.877 -0.6894  1.7280 -0.4294
 7205SOL     H247815   7.403   4.616   0.889 -0.0419 -0.2121  0.7015
 7206SOL    OH247816   1.320   1.672   7.827 -0.8085  0.0152  0.1329
 7206SOL     H147817   1.385   1.743   7.829  0.4574 -1.1225  0.2416
 7206SOL     H247818   1.236   1.716   7.836  0.0829  1.3399  2.3232
 7207SOL    OH247819   7.619   1.237   0.970  0.5241 -0.1815 -0.0692
 7207SOL     H147820   7.675   1.168   0.934  0.4779 -0.5518  0.5603
 7207SOL     H247821   7.545   1.241   0.910  1.9103  1.3124 -1.7396
 7208SOL    OH247822   0.720   4.975   8.273 -0.6351  0.3195  0.0331
 7208SOL     H147823   0.714   5.007   8.183 -0.1186  0.1814 -0.0529
 7208SOL     H247824   0.629   4.961   8.299 -0.6959 -3.4172 -1.8382
 7209SOL    OH247825   4.335   5.332   6.146  0.3771  0.1707  0.2233
 7209SOL     H147826   4.316   5.346   6.053 -1.4097 -1.3676  0.3189
 7209SOL     H247827   4.430   5.339   6.153  0.6084 -0.5004 -1.8675
 7210SOL    OH247828   2.474   0.738   7.618  0.6089 -0.4802  0.2801
 7210SOL     H147829   2.552   0.770   7.573 -0.5525  1.2681 -0.5112
 7210SOL     H247830   2.404   0.795   7.588 -1.2628 -2.9044 -0.0968
 7211SOL    OH247831   7.221   2.070   1.034  0.0153 -0.0828  0.1701
 7211SOL     H147832   7.294   2.080   1.096  0.5631 -1.8438 -0.1766
 7211SOL     H247833   7.253   2.112   0.954  0.5498 -0.5856  0.1110
 7212SOL    OH247834   5.082   4.811   2.016  0.5113 -0.2830  0.4326
 7212SOL     H147835   5.175   4.805   2.041  0.6658  0.9780  0.2081
 7212SOL     H247836   5.048   4.723   2.030  1.4194 -0.4315  1.8394
 7213SOL    OH247837   5.080   3.897   0.441  0.3180 -0.1476  0.3056
 7213SOL     H147838   5.078   3.938   0.355  0.9087  1.2519  0.9397
 7213SOL     H247839   5.129   3.958   0.496 -1.3545 -0.2794  2.0197
 7214SOL    OH247840   0.992   0.439   1.625 -0.2181  0.0476 -0.2245
 7214SOL     H147841   0.958   0.513   1.576 -0.8490  0.1653  0.3860
 7214SOL     H247842   1.082   0.429   1.594  0.0183  1.3628  0.0458
 7215SOL    OH247843   5.035   1.344   0.380 -0.1171  0.1625  0.4540
 7215SOL     H147844   5.049   1.250   0.379 -0.5589  0.1058 -0.4300
 7215SOL     H247845   4.940   1.355   0.385 -0.1253  0.5584 -0.5488
 7216SOL    OH247846   5.611   0.309   0.646  0.3184  0.4976  0.0546
 7216SOL     H147847   5.519   0.282   0.654  0.1077  1.2314  0.1991
 7216SOL     H247848   5.661   0.229   0.659 -0.3498 -0.1708 -1.4546
 7217SOL    OH247849   6.605   6.616   7.156 -0.1904  0.0028 -0.3832
 7217SOL     H147850   6.637   6.529   7.182  1.5972  1.0713  1.0804
 7217SOL     H247851   6.556   6.600   7.075 -0.5633 -2.4829  0.2918
 7218SOL    OH247852   3.598   4.041   6.957 -0.2806 -0.2046 -0.0522
 7218SOL     H147853   3.649   4.057   6.878 -0.9997 -2.6342 -1.0405
 7218SOL     H247854   3.652   3.981   7.009 -1.2028 -1.1207 -0.1493
 7219SOL    OH247855   7.452   1.377   1.341 -0.4144  0.0893  0.0999
 7219SOL     H147856   7.373   1.426   1.364  0.9045  1.2907  2.2059
 7219SOL     H247857   7.471   1.405   1.251 -2.1651  0.0243 -0.3222
 7220SOL    OH247858   2.492   1.132   6.081  0.0871 -0.6748 -0.1830
 7220SOL     H147859   2.438   1.178   6.145  0.2000 -1.2966  0.3633
 7220SOL     H247860   2.507   1.046   6.119  3.3486  0.2303  0.7447
 7221SOL    OH247861   2.716   1.662   0.544  0.4247  0.2763  0.4479
 7221SOL     H147862   2.642   1.658   0.604 -0.9311  1.4237 -1.0706
 7221SOL     H247863   2.710   1.581   0.493  1.0290 -0.2675  1.2393
 7222SOL    OH247864   3.370   7.447   6.406 -0.4832  0.1378  0.5354
 7222SOL     H147865   3.277   7.472   6.409 -0.1439  1.5389 -0.2420
 7222SOL     H247866   3.373   7.361   6.450 -2.3693 -0.6189 -0.7572
 7223SOL    OH247867   0.837   3.371   7.061 -0.4304  0.3029  0.2164
 7223SOL     H147868   0.902   3.341   7.126 -0.2995  1.2035  0.4995
 7223SOL     H247869   0.823   3.463   7.081 -1.7399  0.1406  0.0902
 7224SOL    OH247870   2.831   5.848   0.855 -0.0376  0.4761 -0.1312
 7224SOL     H147871   2.865   5.759   0.851 -0.7846  0.1371  0.8576
 7224SOL     H247872   2.904   5.903   0.827  0.8580 -0.3460  0.5661
 7225SOL    OH247873   1.688   0.200   6.155  0.4460 -0.2198 -0.5258
 7225SOL     H147874   1.632   0.204   6.078 -1.4771 -0.6153  0.7938
 7225SOL     H247875   1.660   0.274   6.209  0.8877 -0.6764  0.3469
 7226SOL    OH247876   6.912   3.749   7.110 -0.4116  0.7801 -0.7229
 7226SOL     H147877   6.933   3.755   7.203 -1.5997 -0.7172 -0.3364
 7226SOL     H247878   6.996   3.735   7.067 -0.0436 -0.3318  0.3151
 7227SOL    OH247879   4.023   1.631   1.539 -0.0737 -0.0236 -0.1869
 7227SOL     H147880   3.997   1.623   1.447  2.7164 -0.2152 -1.0123
 7227SOL     H247881   4.073   1.712   1.542  2.8098 -1.7674  0.4012
 7228SOL    OH247882   2.984   0.982   7.803 -0.1782  0.0485 -0.1331
 7228SOL     H147883   2.920   0.956   7.869  0.8070  1.0314  1.2455
 7228SOL     H247884   3.063   0.932   7.825  0.4863  1.1784  0.1082
 7229SOL    OH247885   6.306   7.621   0.841 -0.0245 -0.6903  0.2092
 7229SOL     H147886   6.395   7.632   0.807  0.0332  0.5039  0.7213
 7229SOL     H247887   6.293   7.696   0.900 -1.8567 -0.0980 -0.8988
 7230SOL    OH247888   2.360   7.858   6.815  0.4811  0.0821  0.0689
 7230SOL     H147889   2.294   7.793   6.792  0.0006  0.2800  0.8676
 7230SOL     H247890   2.403   7.880   6.732 -0.9732  0.5460 -0.5600
 7231SOL    OH247891   1.745   6.750   0.686 -0.0683 -0.4394 -0.2905
 7231SOL     H147892   1.707   6.797   0.612  0.1251 -0.4896 -0.4188
 7231SOL     H247893   1.788   6.674   0.648  2.5317  1.0526 -0.4302
 7232SOL    OH247894   6.714   1.009   0.167 -0.5670  0.0781  0.0546
 7232SOL     H147895   6.638   0.953   0.153 -0.2940 -0.4111  0.4835
 7232SOL     H247896   6.717   1.022   0.262  1.2122 -1.8243  0.2965
 7233SOL    OH247897   6.093   0.256   8.127 -0.3816  0.2535 -0.3641
 7233SOL     H147898   6.057   0.228   8.042  0.9626  1.6030 -1.3992
 7233SOL     H247899   6.188   0.251   8.115 -0.1790  1.5214  0.7135
 7234SOL    OH247900   5.931   0.889   6.678 -0.0323  0.5368  0.4141
 7234SOL     H147901   5.908   0.875   6.586  1.0303  0.6855  0.1231
 7234SOL     H247902   5.957   0.803   6.710  0.8645  0.7263  0.2123
 7235SOL    OH247903   0.894   4.658   7.697  0.0390 -0.5104  0.2063
 7235SOL     H147904   0.848   4.587   7.652 -0.6765 -1.1771  1.9604
 7235SOL     H247905   0.825   4.702   7.748  0.9313 -0.1052  1.0753
 7236SOL    OH247906   5.627   1.566   7.887 -0.3161 -0.0210  0.4943
 7236SOL     H147907   5.637   1.477   7.854  0.7110  1.1633 -2.4954
 7236SOL     H247908   5.717   1.596   7.902 -0.6209  0.7952  0.7164
 7237SOL    OH247909   2.134   3.817   7.792 -0.2594 -0.0609  0.0564
 7237SOL     H147910   2.085   3.790   7.714 -0.6187 -1.1468  0.6363
 7237SOL     H247911   2.069   3.818   7.862  0.3382 -0.5153  0.6286
 7238SOL    OH247912   3.327   1.288   7.606  0.0125 -0.0667  0.1819
 7238SOL     H147913   3.380   1.354   7.651  1.1912  0.8015 -2.4206
 7238SOL     H247914   3.386   1.251   7.540 -1.9200 -0.7536 -1.1810
 7239SOL    OH247915   6.387   3.170   7.650 -0.2768 -0.0669  0.4463
 7239SOL     H147916   6.336   3.098   7.613  2.2241 -2.0723  0.7462
 7239SOL     H247917   6.377   3.161   7.745 -0.8942  0.7127  0.4631
 7240SOL    OH247918   3.358   4.631   0.379  0.0488  0.1606 -0.1397
 7240SOL     H147919   3.400   4.595   0.457  1.5694  1.3654 -0.3740
 7240SOL     H247920   3.367   4.726   0.389 -0.8316  0.3619 -1.1961
 7241SOL    OH247921   1.571   4.705   0.958 -0.2662 -0.1884  0.1715
 7241SOL     H147922   1.627   4.668   0.890 -1.1094 -0.8140 -0.1946
 7241SOL     H247923   1.525   4.777   0.914 -1.3043 -1.0109 -0.1260
 7242SOL    OH247924   6.429   7.034   2.009 -0.6595  0.3580  0.4481
 7242SOL     H147925   6.390   7.118   1.987  0.1139  0.9935  1.4678
 7242SOL     H247926   6.357   6.983   2.047 -0.7240  1.2132  1.5123
 7243SOL    OH247927   7.507   6.873   0.244 -0.2897  0.1058 -0.0509
 7243SOL     H147928   7.426   6.923   0.233 -1.6883 -2.6262 -2.7649
 7243SOL     H247929   7.555   6.888   0.162  1.3517  0.6283  0.9978
 7244SOL    OH247930   4.813   6.534   6.747 -0.5161 -0.0618 -0.3327
 7244SOL     H147931   4.863   6.607   6.785 -1.5146  1.4148 -1.7781
 7244SOL     H247932   4.791   6.479   6.822  1.5857  0.2862  0.5863
 7245SOL    OH247933   1.858   1.459   1.358  0.6756 -0.0080 -0.0628
 7245SOL     H147934   1.792   1.396   1.328 -1.5101  2.1117  0.0982
 7245SOL     H247935   1.810   1.542   1.366  3.4106  1.6483 -0.0737
 7246SOL    OH247936   2.177   0.248   1.575 -0.2015  0.5023 -0.3239
 7246SOL     H147937   2.269   0.225   1.588 -0.2150  0.5906 -0.0730
 7246SOL     H247938   2.178   0.310   1.502 -0.2440 -0.8950 -1.5499
 7247SOL    OH247939   0.657   2.173   6.876  0.9847 -0.2684  0.1613
 7247SOL     H147940   0.588   2.239   6.864  0.7248 -0.2272  1.7314
 7247SOL     H247941   0.716   2.213   6.941 -0.1104 -2.2853  2.4566
 7248SOL    OH247942   1.446   3.507   6.370  0.2768 -0.2391 -0.0596
 7248SOL     H147943   1.457   3.485   6.463 -0.0926  0.0043  0.0468
 7248SOL     H247944   1.427   3.601   6.370 -1.0331 -0.4825 -0.2682
 7249SOL    OH247945   6.132   7.529   0.330  0.4879 -0.4290  0.0627
 7249SOL     H147946   6.087   7.454   0.368 -0.6988 -0.1498 -0.7611
 7249SOL     H247947   6.103   7.530   0.238  1.6428  0.1609 -0.2973
 7250SOL    OH247948   0.468   6.360   7.433  0.1863 -0.1660 -0.0500
 7250SOL     H147949   0.433   6.425   7.493  0.3134  0.9808 -1.1802
 7250SOL     H247950   0.554   6.338   7.468 -0.9071 -1.7192  1.7902
 7251SOL    OH247951   2.469   5.017   1.401 -0.2766  0.3316 -0.3933
 7251SOL     H147952   2.403   5.047   1.338 -1.2237 -0.9303 -0.0105
 7251SOL     H247953   2.541   5.080   1.391 -0.4360  0.1879 -2.6965
 7252SOL    OH247954   4.532   5.294   2.016  0.1188  0.0513  0.1034
 7252SOL     H147955   4.531   5.332   1.928  0.0205  1.3781  0.6753
 7252SOL     H247956   4.598   5.225   2.011 -2.1128 -2.0198 -1.8860
 7253SOL    OH247957   3.405   6.365   0.482 -0.1232  0.4316  0.4310
 7253SOL     H147958   3.479   6.424   0.496 -0.8998  1.3238  0.8473
 7253SOL     H247959   3.445   6.281   0.458  1.0866  0.2986  2.8342
 7254SOL    OH247960   0.571   6.612   5.666  0.5986 -0.6164  0.2019
 7254SOL     H147961   0.542   6.575   5.750 -3.2872  0.3324 -0.6226
 7254SOL     H247962   0.589   6.535   5.611 -3.5134 -1.4062 -0.2041
 7255SOL    OH247963   1.652   6.475   1.781 -0.3000 -0.0153  0.1543
 7255SOL     H147964   1.610   6.466   1.867  0.9581 -2.7486  0.5507
 7255SOL     H247965   1.580   6.472   1.718 -1.1771  1.3175  1.0785
 7256SOL    OH247966   6.211   0.330   1.027  0.2340 -0.2826 -0.1347
 7256SOL     H147967   6.240   0.393   0.961 -0.7786 -0.6124 -0.8925
 7256SOL     H247968   6.286   0.322   1.087  0.2435  1.8956  0.1649
 7257SOL    OH247969   3.563   4.208   8.260 -0.6841  0.0094  0.1746
 7257SOL     H147970   3.485   4.185   8.210 -0.6198  0.1935 -0.0080
 7257SOL     H247971   3.636   4.180   8.205 -0.4969  3.6866 -1.6185
 7258SOL    OH247972   1.545   5.124  -0.004  0.4002 -0.1138  0.1346
 7258SOL     H147973   1.498   5.202   0.027  1.3319 -0.1953  1.8102
 7258SOL     H247974   1.511   5.053   0.050  0.9565 -0.5230 -0.0464
 7259SOL    OH247975   1.929   0.187   1.729  0.2822  0.1935 -0.0027
 7259SOL     H147976   2.012   0.216   1.691 -0.3512 -0.7654 -2.1813
 7259SOL     H247977   1.868   0.259   1.711 -0.0245 -0.2718 -0.8316
 7260SOL    OH247978   0.494   0.329   1.460 -0.3131  0.5076  0.2057
 7260SOL     H147979   0.588   0.337   1.475  0.2249 -0.8741 -2.1959
 7260SOL     H247980   0.460   0.291   1.541  0.9304  2.5258  1.7135
 7261SOL    OH247981   4.057   4.247   7.097 -0.5442  0.0778  0.4308
 7261SOL     H147982   3.982   4.293   7.058 -0.1976  1.1169  0.9643
 7261SOL     H247983   4.072   4.173   7.039 -1.7147  0.1030  0.0727
 7262SOL    OH247984   2.699   0.284   7.077  0.4022  0.3692  0.4873
 7262SOL     H147985   2.700   0.341   7.000  0.6503 -0.1392  0.1091
 7262SOL     H247986   2.785   0.298   7.118  0.3509  0.4857  0.5545
 7263SOL    OH247987   0.042   2.714   0.169  0.3614 -0.4464  0.8742
 7263SOL     H147988   0.055   2.670   0.085  1.2690 -0.4019  0.9829
 7263SOL     H247989  -0.035   2.672   0.206 -0.9129  0.5025 -0.6099
 7264SOL    OH247990   4.007   6.274   6.527  0.3944  0.2903 -0.3772
 7264SOL     H147991   4.073   6.267   6.596  0.0672 -0.7614 -0.1628
 7264SOL     H247992   3.940   6.331   6.564  0.6500  0.4547 -0.1653
 7265SOL    OH247993   3.534   6.789   8.166  0.1268  0.1061 -0.9152
 7265SOL     H147994   3.446   6.808   8.200 -0.5864 -3.0276 -0.8708
 7265SOL     H247995   3.593   6.821   8.234 -1.0071  1.1756 -0.4022
 7266SOL    OH247996   3.661   7.384   7.613  0.2177 -0.5219 -0.0227
 7266SOL     H147997   3.747   7.398   7.653  0.2729 -3.0987  0.8503
 7266SOL     H247998   3.664   7.294   7.579 -1.8262 -0.3440 -0.7567
 7267SOL    OH247999   7.367   6.870   1.369 -0.1591 -0.1254 -0.0860
 7267SOL     H148000   7.398   6.870   1.278  0.6849 -1.1438  0.1871
 7267SOL     H248001   7.402   6.950   1.407 -0.5833  0.3470 -0.6744
 7268SOL    OH248002   4.541   4.440   6.157 -0.3746  0.0805  0.0409
 7268SOL     H148003   4.607   4.510   6.162  0.7889 -1.1404  2.4150
 7268SOL     H248004   4.583   4.365   6.197 -2.2393 -1.5393 -0.9832
 7269SOL    OH248005   1.355   0.228   1.181  0.4558  0.3985 -0.0944
 7269SOL     H148006   1.418   0.261   1.117 -0.3614  1.3497 -0.4246
 7269SOL     H248007   1.376   0.135   1.189  0.6767  0.3022 -1.6113
 7270SOL    OH248008   6.573   2.484   7.615  0.3036  0.3068 -0.0617
 7270SOL     H148009   6.547   2.464   7.525  3.7249  0.6112 -1.1919
 7270SOL     H248010   6.556   2.578   7.624  0.6892  0.4471 -0.6984
 7271SOL    OH248011   0.947   4.143   6.953 -0.5225  0.0245 -0.3143
 7271SOL     H148012   1.037   4.144   6.922  0.0665  1.5317  1.3823
 7271SOL     H248013   0.898   4.193   6.887  0.2441  0.9611 -0.1799
 7272SOL    OH248014   3.029   3.188   1.890 -0.7016  0.3243  0.3292
 7272SOL     H148015   3.019   3.279   1.919 -0.0022  1.1161 -1.8264
 7272SOL     H248016   3.062   3.195   1.801  0.0751 -2.0787  0.4069
 7273SOL    OH248017   0.402   3.764   2.499 -0.4493  0.4541 -0.0365
 7273SOL     H148018   0.451   3.837   2.460 -0.2884  0.6345  0.4954
 7273SOL     H248019   0.370   3.799   2.582  1.3487 -0.7065  1.2018
 7274SOL    OH248020   2.562   6.311   6.190 -0.0974 -0.2702  0.0675
 7274SOL     H148021   2.565   6.232   6.135  1.6458 -0.5131  0.4802
 7274SOL     H248022   2.533   6.380   6.131 -1.1122 -1.0982 -0.4369
 7275SOL    OH248023   6.503   6.565   6.116 -0.0926  0.5102  0.2950
 7275SOL     H148024   6.573   6.609   6.067 -0.8541  0.1292 -1.1776
 7275SOL     H248025   6.538   6.479   6.136 -0.4429 -0.0151 -1.2391
 7276SOL    OH248026   3.407   0.396   6.855  0.0719  0.0304  0.5098
 7276SOL     H148027   3.399   0.343   6.935  1.3236  0.7035  1.0833
 7276SOL     H248028   3.392   0.486   6.883  3.0860  0.5718  0.4587
 7277SOL    OH248029   1.287   0.445   8.064 -0.5926 -0.1770 -0.4402
 7277SOL     H148030   1.346   0.375   8.091  1.0796  0.8678 -1.2876
 7277SOL     H248031   1.208   0.431   8.116  0.1047 -2.0582  0.1595
 7278SOL    OH248032   6.017   4.099   7.838  0.2743 -0.2292  0.1368
 7278SOL     H148033   5.967   4.029   7.880 -0.9533  0.6149  0.1235
 7278SOL     H248034   5.988   4.179   7.882  1.4668  0.2965 -0.0185
 7279SOL    OH248035   5.014   3.343   7.082  0.9063  0.2969  0.5730
 7279SOL     H148036   5.013   3.269   7.021  1.2759  0.6279  0.1662
 7279SOL     H248037   4.966   3.310   7.159  0.4481 -0.1285  0.1182
 7280SOL    OH248038   4.595   6.184   1.281  0.0246 -0.1437  0.4567
 7280SOL     H148039   4.558   6.261   1.323  0.5319  0.6861 -0.5770
 7280SOL     H248040   4.678   6.168   1.326 -0.0962 -0.1036  0.6906
 7281SOL    OH248041   3.877   5.718   7.999 -0.6613 -0.3420  0.5117
 7281SOL     H148042   3.857   5.638   7.951 -0.6869 -0.6741  1.0693
 7281SOL     H248043   3.826   5.786   7.955  1.6079 -0.0696 -1.8084
 7282SOL    OH248044   0.452   7.063   7.089 -0.0058  0.3749  0.6121
 7282SOL     H148045   0.371   7.015   7.109 -1.7219  3.5253  1.6448
 7282SOL     H248046   0.438   7.099   7.001  1.1959 -0.8592 -0.0951
 7283SOL    OH248047   6.909   3.430   6.718 -1.0785  0.5813  0.0821
 7283SOL     H148048   6.844   3.443   6.787 -2.2348  2.1273 -1.2453
 7283SOL     H248049   6.869   3.364   6.660 -0.8599  0.5238 -0.0040
 7284SOL    OH248050   2.033   4.765   1.390 -0.3288 -0.0249 -0.1748
 7284SOL     H148051   2.022   4.770   1.295  2.9632  0.6198 -0.6003
 7284SOL     H248052   1.973   4.832   1.425 -1.0268  0.2360 -1.8333
 7285SOL    OH248053   0.501   5.618   1.665 -0.4693  0.4637  0.3329
 7285SOL     H148054   0.408   5.615   1.686 -0.1790  0.3212  1.6900
 7285SOL     H248055   0.508   5.573   1.581 -1.6173  0.4019  0.2588
 7286SOL    OH248056   1.203   4.241   6.760  0.1570  0.1050 -0.0163
 7286SOL     H148057   1.157   4.293   6.694  1.3696 -0.9023 -1.7070
 7286SOL     H248058   1.262   4.303   6.803  0.0224  0.5761 -0.5085
 7287SOL    OH248059   6.272   6.696   7.410 -0.6876  0.1539  0.1796
 7287SOL     H148060   6.215   6.621   7.392 -0.4674  0.1439 -0.4930
 7287SOL     H248061   6.303   6.681   7.500 -1.0273 -0.3110  0.2238
 7288SOL    OH248062   5.018   1.167   7.726 -0.1269  0.1342  0.2522
 7288SOL     H148063   5.085   1.217   7.680 -0.4614  2.0436  1.7754
 7288SOL     H248064   5.060   1.083   7.747  1.8567  1.3729  1.3418
 7289SOL    OH248065   3.647   5.410   2.031  0.1195  0.4281  0.5079
 7289SOL     H148066   3.611   5.322   2.019 -1.6954  1.1711  0.3806
 7289SOL     H248067   3.687   5.431   1.947  0.9827 -0.4527  0.6871
 7290SOL    OH248068   5.107   5.363   7.534 -0.3331  0.8642  0.4265
 7290SOL     H148069   5.135   5.302   7.466 -0.8307  0.9919  0.1055
 7290SOL     H248070   5.021   5.332   7.561 -0.5701  1.3971  0.2953
 7291SOL    OH248071   3.706   1.189   0.613 -0.0556  0.2972 -0.3494
 7291SOL     H148072   3.761   1.140   0.674  0.0272  0.1522 -0.5403
 7291SOL     H248073   3.660   1.122   0.562 -0.0160  0.4176 -0.5443
 7292SOL    OH248074   5.163   7.518   8.098 -0.4349 -0.0360 -0.0095
 7292SOL     H148075   5.250   7.505   8.061 -0.3641 -0.2231  0.2171
 7292SOL     H248076   5.123   7.431   8.100 -0.8280  0.1292 -0.5962
 7293SOL    OH248077   1.010   6.232   7.052  0.1056 -0.1093  0.1145
 7293SOL     H148078   1.097   6.268   7.037 -0.2931  0.3515 -1.2120
 7293SOL     H248079   1.017   6.140   7.027  0.3729 -0.2406  0.6576
 7294SOL    OH248080   6.365   1.690   0.508 -0.1620 -0.4606 -0.1926
 7294SOL     H148081   6.357   1.607   0.554  0.3341 -0.5339 -0.2393
 7294SOL     H248082   6.275   1.722   0.502 -0.2158 -0.3270  1.0613
 7295SOL    OH248083   2.553   2.139   8.267 -0.3295  0.0498 -0.1501
 7295SOL     H148084   2.631   2.165   8.218 -0.2701 -0.1297 -0.1506
 7295SOL     H248085   2.532   2.052   8.233  0.5187 -0.6637  1.1329
 7296SOL    OH248086   7.251   2.828   8.167 -0.4757 -0.2033 -0.2065
 7296SOL     H148087   7.200   2.766   8.115 -1.2668 -0.0170  0.3521
 7296SOL     H248088   7.189   2.864   8.230  0.5262 -0.5686  1.0034
 7297SOL    OH248089   6.529   2.868   1.504  0.6505 -0.2120  0.0084
 7297SOL     H148090   6.501   2.895   1.591 -0.6774 -2.0135  0.1631
 7297SOL     H248091   6.510   2.943   1.448  0.2588  0.4513  1.0131
 7298SOL    OH248092   3.533   3.736   6.967 -0.3825 -0.2424 -0.5882
 7298SOL     H148093   3.526   3.827   6.995  1.2300 -0.5552  0.9642
 7298SOL     H248094   3.602   3.737   6.900 -0.4276 -0.3179 -0.6360
 7299SOL    OH248095   0.132   3.641   1.940 -0.1628  0.1027 -0.1909
 7299SOL     H148096   0.187   3.718   1.951 -2.7837  1.8063  1.5265
 7299SOL     H248097   0.193   3.567   1.941  2.2132  2.0237 -0.1291
 7300SOL    OH248098   6.460   0.333   5.744 -0.5591 -0.1867  0.5077
 7300SOL     H148099   6.416   0.418   5.735 -0.1480 -0.0032  0.1615
 7300SOL     H248100   6.445   0.307   5.835 -1.3989 -0.1399  0.3857
 7301SOL    OH248101   7.839   3.852   6.992  0.4640 -0.1985  0.0926
 7301SOL     H148102   7.865   3.918   7.057 -0.2956  1.5308 -1.3358
 7301SOL     H248103   7.752   3.823   7.021 -1.2089  2.7400 -1.7262
 7302SOL    OH248104   2.408   4.316   7.253  0.2228  0.2597  0.1922
 7302SOL     H148105   2.436   4.327   7.162  0.2775 -0.4705  0.1143
 7302SOL     H248106   2.341   4.383   7.266  2.8741  2.8548  0.7706
 7303SOL    OH248107   6.161   1.779   7.524 -0.4898 -0.4855 -0.0446
 7303SOL     H148108   6.107   1.707   7.490 -1.8949  0.0661  0.9736
 7303SOL     H248109   6.151   1.774   7.619 -0.0097  0.6218  0.0727
 7304SOL    OH248110   1.927   2.657   6.104  0.2905  0.4615  0.0621
 7304SOL     H148111   1.855   2.634   6.044  0.7741  0.9884 -0.7247
 7304SOL     H248112   1.886   2.660   6.190 -0.4615 -0.0817 -0.2717
 7305SOL    OH248113   7.601   5.381   7.523 -0.6983  0.3487  0.0882
 7305SOL     H148114   7.544   5.305   7.510 -0.0591  0.2438 -2.2743
 7305SOL     H248115   7.690   5.347   7.516 -0.4040  1.3188 -1.1371
 7306SOL    OH248116   1.752   2.513   1.988  0.0789 -0.6376  0.2060
 7306SOL     H148117   1.846   2.523   1.976 -0.1228  0.0938 -0.8300
 7306SOL     H248118   1.719   2.603   1.995 -0.4374 -0.9142  1.4266
 7307SOL    OH248119   2.778   1.826   1.890  0.0292 -0.5185  0.4339
 7307SOL     H148120   2.752   1.883   1.818  1.6499 -0.2477  0.0412
 7307SOL     H248121   2.697   1.785   1.919 -1.0750  1.5390  0.3382
 7308SOL    OH248122   5.430   2.441   6.279  0.0319 -0.1261  0.0267
 7308SOL     H148123   5.466   2.377   6.340 -0.3107 -0.6616 -0.3217
 7308SOL     H248124   5.343   2.406   6.257 -1.4384  2.0367  2.2230
 7309SOL    OH248125   6.974   2.441   2.199 -0.7015 -0.5128 -0.5536
 7309SOL     H148126   7.007   2.525   2.232 -0.9360  0.0222 -1.6833
 7309SOL     H248127   7.041   2.377   2.225 -0.5087  0.0171  0.2843
 7310SOL    OH248128   3.215   6.121   7.920  0.2336 -0.2005 -0.0906
 7310SOL     H148129   3.218   6.110   7.825 -1.8432 -0.0816 -0.1907
 7310SOL     H248130   3.307   6.131   7.946  0.7622  0.6375 -2.1814
 7311SOL    OH248131   4.205   6.942   0.675  0.2033 -0.2997 -0.5494
 7311SOL     H148132   4.241   6.862   0.714  0.3941  0.2300  0.3803
 7311SOL     H248133   4.114   6.944   0.704  0.4183  0.2360  0.1084
 7312SOL    OH248134   1.291   2.275   1.769  0.1143 -0.1607  0.2064
 7312SOL     H148135   1.243   2.275   1.686 -0.7879 -0.6745  0.7185
 7312SOL     H248136   1.299   2.182   1.791  1.5608 -0.0893  0.0048
 7313SOL    OH248137   1.407   5.167   7.569 -0.3363  0.2670  0.5509
 7313SOL     H148138   1.330   5.217   7.595 -0.5449 -0.6627  1.7464
 7313SOL     H248139   1.446   5.137   7.651 -0.9737 -2.6552 -0.1395
 7314SOL    OH248140   2.042   0.887   7.002 -0.0830  0.1772  0.1991
 7314SOL     H148141   1.965   0.942   7.015 -0.7962 -0.3194 -1.7124
 7314SOL     H248142   2.033   0.818   7.068 -0.2254  1.2161  1.2885
 7315SOL    OH248143   3.073   6.945   0.769 -0.2390 -0.1308 -0.3784
 7315SOL     H148144   3.150   6.994   0.799  0.0622 -1.0285  0.3430
 7315SOL     H248145   3.093   6.854   0.791  0.3632 -0.9819 -4.0494
 7316SOL    OH248146   1.257   1.577   6.712 -0.6868 -0.0210  0.0526
 7316SOL     H148147   1.349   1.560   6.732 -0.4749  0.1836 -0.7447
 7316SOL     H248148   1.258   1.654   6.655 -1.2730 -0.6456 -0.8134
 7317SOL    OH248149   2.308   1.541   0.227  0.5736 -0.0192  0.6871
 7317SOL     H148150   2.341   1.467   0.277  1.5528  0.3089  0.5353
 7317SOL     H248151   2.308   1.510   0.136 -0.0635 -0.2036  0.7457
 7318SOL    OH248152   7.717   1.710   0.739  0.2478 -0.0123 -0.0132
 7318SOL     H148153   7.644   1.656   0.771  1.1552 -3.0669 -2.7483
 7318SOL     H248154   7.785   1.701   0.806  0.2556 -2.1052 -0.2581
 7319SOL    OH248155   4.854   7.180   0.940  0.3046  0.1926 -0.2235
 7319SOL     H148156   4.847   7.085   0.944 -1.9505  0.2947 -1.0650
 7319SOL     H248157   4.845   7.200   0.847 -2.1186  1.4043  0.2370
 7320SOL    OH248158   7.107   3.871   1.481  0.0115 -0.1581  0.3322
 7320SOL     H148159   7.177   3.927   1.517 -0.6095 -0.0087  1.3305
 7320SOL     H248160   7.124   3.785   1.518 -0.9272  0.1087  1.4089
 7321SOL    OH248161   5.401   2.823   8.238  0.2007 -0.6157  0.1517
 7321SOL     H148162   5.371   2.908   8.206  1.6591 -0.3601 -0.5383
 7321SOL     H248163   5.368   2.819   8.328 -2.5616 -0.6674 -0.7892
 7322SOL    OH248164   7.398   2.453   7.781 -0.0254 -0.4981  0.2862
 7322SOL     H148165   7.373   2.381   7.839  1.0998 -0.2484  1.0895
 7322SOL     H248166   7.491   2.439   7.764  0.8576  2.2260  2.5620
 7323SOL    OH248167   3.422   2.746   7.114  0.6121  0.0027 -0.3299
 7323SOL     H148168   3.393   2.837   7.116 -1.2072 -0.5739  0.8920
 7323SOL     H248169   3.504   2.746   7.164  0.5811  0.9708 -0.2731
 7324SOL    OH248170   3.200   4.117   0.315 -0.2604  0.3364  0.3545
 7324SOL     H148171   3.117   4.163   0.307  1.0711  2.3966 -2.9183
 7324SOL     H248172   3.196   4.048   0.249  0.0157 -0.5699  1.2739
 7325SOL    OH248173   4.724   6.469   0.329  0.3936  0.0926 -0.0423
 7325SOL     H148174   4.754   6.457   0.419  0.9185 -0.3216 -0.2706
 7325SOL     H248175   4.641   6.421   0.326  0.3415  0.1617  0.2378
 7326SOL    OH248176   4.531   3.229   7.930 -0.1311  0.0777 -0.0345
 7326SOL     H148177   4.590   3.304   7.938 -0.4498  0.5334 -1.8118
 7326SOL     H248178   4.445   3.267   7.915  0.0739 -0.6217 -3.4018
 7327SOL    OH248179   2.908   7.915   0.321  0.4531  0.4857 -0.9089
 7327SOL     H148180   2.854   7.837   0.308  1.6480 -0.9157  2.0827
 7327SOL     H248181   2.998   7.882   0.319  0.9243  1.3437  2.8348
 7328SOL    OH248182   1.706   7.843   6.392  0.1933  0.5542 -0.1280
 7328SOL     H148183   1.699   7.868   6.300 -1.9003  0.3963 -0.0328
 7328SOL     H248184   1.616   7.840   6.423  0.8743  0.5047  1.9139
 7329SOL    OH248185   1.255   4.049   1.721 -0.2090 -1.2633  0.3135
 7329SOL     H148186   1.179   4.104   1.741 -0.3162 -1.5018  0.5578
 7329SOL     H248187   1.311   4.105   1.668 -0.2077 -0.8323  0.7653
 7330SOL    OH248188   0.919   5.609   7.768  0.1665 -0.3698 -0.1959
 7330SOL     H148189   0.957   5.545   7.707  1.5081  0.3699 -0.1522
 7330SOL     H248190   0.905   5.559   7.849  1.8477 -0.4639  0.0567
 7331SOL    OH248191   7.740   3.148   6.986  0.2014 -0.3490 -0.2548
 7331SOL     H148192   7.730   3.053   6.981 -2.2434 -0.1580  0.4678
 7331SOL     H248193   7.771   3.163   7.076  0.8566 -0.4693 -0.4555
 7332SOL    OH248194   3.037   3.345   7.196 -0.4569  0.4345  0.4555
 7332SOL     H148195   3.023   3.416   7.134 -1.9096 -0.9052 -0.7959
 7332SOL     H248196   3.132   3.332   7.198 -0.3316  1.1344 -0.7287
 7333SOL    OH248197   3.075   6.923   2.001  0.2636 -0.2597  0.1708
 7333SOL     H148198   3.118   6.946   1.918 -1.1625 -2.2558 -1.1766
 7333SOL     H248199   3.118   6.842   2.028 -1.2892 -1.2286 -0.1987
 7334SOL    OH248200   7.744   1.829   6.328 -0.5630  0.1964 -0.8663
 7334SOL     H148201   7.659   1.856   6.361  0.6074  4.0004 -0.7361
 7334SOL     H248202   7.725   1.789   6.243 -2.5554 -0.0091 -0.3432
 7335SOL    OH248203   7.579   7.219   2.243 -0.8107 -0.0105  0.0977
 7335SOL     H148204   7.598   7.285   2.176  1.1820 -1.1540 -0.4969
 7335SOL     H248205   7.662   7.207   2.289 -1.8231 -0.2136  1.9474
 7336SOL    OH248206   4.843   0.837   7.669 -0.0437  0.0165 -0.5066
 7336SOL     H148207   4.924   0.806   7.709  0.5535  2.3892  0.2535
 7336SOL     H248208   4.784   0.852   7.742 -1.7516 -3.0880 -1.1520
 7337SOL    OH248209   3.956   0.609   0.411  0.2517  0.4378  0.4824
 7337SOL     H148210   3.980   0.635   0.322 -0.5121  0.4223  0.2733
 7337SOL     H248211   4.040   0.595   0.455  0.6450 -2.0446 -0.9653
 7338SOL    OH248212   7.328   5.521   2.651 -0.1625  0.3679  0.3245
 7338SOL     H148213   7.412   5.523   2.697  0.6245 -0.3392 -1.0399
 7338SOL     H248214   7.335   5.590   2.585 -0.5321  0.0977  0.0030
 7339SOL    OH248215   7.475   0.079   1.806  0.0612 -0.3859 -0.0969
 7339SOL     H148216   7.410   0.078   1.736 -0.7885 -1.4827  0.6845
 7339SOL     H248217   7.516   0.165   1.799 -0.9464  0.0328 -1.0790
 7340SOL    OH248218   6.423   6.497   1.908 -0.0289  0.2412  0.0272
 7340SOL     H148219   6.377   6.416   1.932 -0.0346 -0.0352 -0.8921
 7340SOL     H248220   6.506   6.467   1.871  0.5714  0.7127  0.9553
 7341SOL    OH248221   6.316   4.855   2.106 -0.5952 -0.1113 -0.2826
 7341SOL     H148222   6.238   4.804   2.085 -0.4526 -1.4805  2.2389
 7341SOL     H248223   6.389   4.799   2.080 -0.4550 -0.1501  0.1817
 7342SOL    OH248224   0.540   2.092   7.475 -0.1116 -0.0042 -0.4120
 7342SOL     H148225   0.501   2.108   7.560 -1.7499  0.6400 -1.2709
 7342SOL     H248226   0.619   2.041   7.494 -0.6989 -0.2487  1.4378
 7343SOL    OH248227   0.133   5.102   0.012 -0.5386  0.0048  0.1006
 7343SOL     H148228   0.151   5.017   0.051  0.4506  0.2077  0.0885
 7343SOL     H248229   0.041   5.118   0.031 -0.3343 -0.3807  1.4192
 7344SOL    OH248230   2.940   3.580   7.882  0.0604 -0.2110  0.4014
 7344SOL     H148231   2.846   3.568   7.894 -0.2825  1.0308 -0.9556
 7344SOL     H248232   2.973   3.491   7.870 -1.0010 -0.6225  0.4338
 7345SOL    OH248233   4.040   6.393   5.916 -0.2110 -0.9348 -1.3160
 7345SOL     H148234   3.953   6.433   5.922  0.1797 -0.3016  0.2335
 7345SOL     H248235   4.099   6.466   5.902  0.5703 -0.8446  2.0497
 7346SOL    OH248236   2.161   2.767   6.162 -0.7580  1.0721 -0.4334
 7346SOL     H148237   2.083   2.717   6.141 -0.3684  1.1800 -2.2296
 7346SOL     H248238   2.193   2.798   6.078  1.8994  0.0142  0.1251
 7347SOL    OH248239   6.840   4.427   7.382 -0.5312 -0.6879  0.6576
 7347SOL     H148240   6.796   4.369   7.320 -0.2085 -0.3469  0.1011
 7347SOL     H248241   6.924   4.446   7.340 -0.0620 -0.9374  1.4794
 7348SOL    OH248242   2.876   2.188   6.975 -0.2045  0.0549 -0.3230
 7348SOL     H148243   2.812   2.187   7.045  0.2071 -0.8633  0.0474
 7348SOL     H248244   2.857   2.110   6.923  0.2731  0.0663 -0.5227
 7349SOL    OH248245   0.395   6.370   2.344  0.1470  0.3009 -0.2521
 7349SOL     H148246   0.374   6.292   2.294 -0.3727 -0.6766  1.4592
 7349SOL     H248247   0.372   6.348   2.434  2.1843  1.6054  0.6183
 7350SOL    OH248248   4.063   7.642   7.181 -0.6825  0.3456  0.0350
 7350SOL     H148249   4.146   7.668   7.220 -0.0926  0.1608 -1.0794
 7350SOL     H248250   4.046   7.554   7.215  0.2230 -0.1328 -0.7295
 7351SOL    OH248251   4.815   1.852   6.302  0.5503  0.0058 -0.1292
 7351SOL     H148252   4.856   1.860   6.216 -0.9841 -0.9715 -0.9910
 7351SOL     H248253   4.817   1.758   6.320  1.7952  0.3127  1.3858
 7352SOL    OH248254   7.424   2.975   7.882 -0.0441  0.0149  0.1030
 7352SOL     H148255   7.430   2.883   7.907 -0.3307 -0.0428 -0.0463
 7352SOL     H248256   7.330   2.993   7.878  0.0079  0.8285  2.0529
 7353SOL    OH248257   2.024   3.924   8.086 -0.0941  0.4751 -0.1634
 7353SOL     H148258   1.964   3.997   8.100 -0.4852 -0.2801  2.3741
 7353SOL     H248259   2.111   3.961   8.097 -0.1147  1.2649 -2.3867
 7354SOL    OH248260   0.052   2.583   8.220 -0.1071  0.3895  0.8041
 7354SOL     H148261  -0.004   2.637   8.165  0.8149  2.3419  1.7064
 7354SOL     H248262   0.021   2.494   8.207 -0.9372  0.9956 -1.6123
 7355SOL    OH248263   5.430   4.097   0.041  0.4025  0.4067  0.5067
 7355SOL     H148264   5.507   4.138   0.001 -0.1464  0.7359 -0.2290
 7355SOL     H248265   5.374   4.171   0.066  0.4029  0.1750  1.1894
 7356SOL    OH248266   7.710   7.644   0.081  0.0307 -0.3676 -0.5452
 7356SOL     H148267   7.773   7.714   0.095 -0.8649  0.4379 -0.5133
 7356SOL     H248268   7.712   7.627  -0.013  0.8780 -0.8918 -0.4298
 7357SOL    OH248269   2.829   1.509   1.410 -0.0282  0.3864 -0.0119
 7357SOL     H148270   2.739   1.508   1.378 -0.0427 -1.3553  0.0730
 7357SOL     H248271   2.831   1.443   1.479  2.0505 -1.6872 -1.9953
 7358SOL    OH248272   6.594   3.478   5.891 -0.2769 -0.4300  0.3489
 7358SOL     H148273   6.602   3.570   5.864 -2.0255 -0.3516  0.0306
 7358SOL     H248274   6.571   3.431   5.810 -1.6201 -0.7944  0.9267
 7359SOL    OH248275   6.559   5.593   0.856 -0.6091  0.5071  0.4558
 7359SOL     H148276   6.473   5.553   0.869 -0.6763  0.5421  0.1192
 7359SOL     H248277   6.542   5.671   0.803 -0.2153 -0.1840 -0.7225
 7360SOL    OH248278   5.453   0.548   0.064  0.2708 -0.0798 -0.1980
 7360SOL     H148279   5.457   0.602  -0.016  0.8891 -1.1058 -0.8670
 7360SOL     H248280   5.536   0.500   0.064  0.7699  0.7529  1.6773
 7361SOL    OH248281   0.484   1.784   1.649  0.0712 -0.6681  0.2197
 7361SOL     H148282   0.448   1.793   1.561  1.2762 -0.2866 -0.2396
 7361SOL     H248283   0.466   1.869   1.690  0.3441 -0.5140  0.0253
 7362SOL    OH248284   7.227   2.997   1.176  0.7719 -0.1696  0.0466
 7362SOL     H148285   7.281   2.918   1.176 -1.1963 -1.5565 -0.3370
 7362SOL     H248286   7.241   3.036   1.263  1.5946 -1.0556  0.3099
 7363SOL    OH248287   7.215   0.541   6.084 -0.4176  0.0195  0.0110
 7363SOL     H148288   7.234   0.459   6.037 -1.5268  2.0539 -4.2024
 7363SOL     H248289   7.252   0.527   6.171  1.8875 -3.9346 -1.4420
 7364SOL    OH248290   7.622   5.102   0.297 -0.2396  0.7896  0.1320
 7364SOL     H148291   7.645   5.032   0.359  0.6144  0.9454  0.0057
 7364SOL     H248292   7.575   5.166   0.349 -0.4743  0.4139  0.3867
 7365SOL    OH248293   5.231   0.312   0.327  0.3813 -0.2260  0.2136
 7365SOL     H148294   5.151   0.274   0.363  1.3138 -1.5881  0.9075
 7365SOL     H248295   5.258   0.377   0.393 -0.0578  0.1142  0.0603
 7366SOL    OH248296   3.550   7.284   8.218  0.3950 -0.6290 -0.3314
 7366SOL     H148297   3.543   7.290   8.313 -1.8932 -0.4432 -0.4758
 7366SOL     H248298   3.510   7.364   8.185  2.1036 -0.1944 -1.4581
 7367SOL    OH248299   1.655   6.137   7.546 -0.3555 -0.1391 -0.2233
 7367SOL     H148300   1.689   6.195   7.478  3.0128 -1.2787  0.4084
 7367SOL     H248301   1.609   6.068   7.498  0.7954 -0.1780 -1.2936
 7368SOL    OH248302   6.258   5.887   2.069  0.5084  0.0228 -0.3641
 7368SOL     H148303   6.327   5.951   2.054 -1.0251  1.1850 -2.7140
 7368SOL     H248304   6.299   5.802   2.050  2.8785  0.0365  3.8526
 7369SOL    OH248305   1.995   4.579   6.062 -0.1377  0.0722  0.2608
 7369SOL     H148306   1.926   4.513   6.063  0.5722 -0.6626  0.1443
 7369SOL     H248307   1.952   4.658   6.096 -1.8423  0.4270 -2.6047
 7370SOL    OH248308   3.951   0.777   7.676 -0.5343  0.2449  0.0127
 7370SOL     H148309   3.913   0.840   7.614 -1.8805 -0.4535  0.1040
 7370SOL     H248310   3.963   0.826   7.757  0.0831  0.8462 -0.4437
 7371SOL    OH248311   5.658   1.918   0.997 -0.2144 -0.0342  0.8241
 7371SOL     H148312   5.746   1.882   1.013  0.4168  0.7222 -0.8520
 7371SOL     H248313   5.657   2.000   1.047  0.3403  0.3702  0.1844
 7372SOL    OH248314   3.540   1.303   2.321 -0.1198  0.1858 -0.0272
 7372SOL     H148315   3.583   1.235   2.374 -1.8354  0.2385  1.5061
 7372SOL     H248316   3.473   1.340   2.379 -3.4412 -1.0988 -2.8270
 7373SOL    OH248317   0.661   1.266   5.789  0.1281  0.1883  0.4478
 7373SOL     H148318   0.663   1.260   5.885 -1.8722 -0.3466  0.4739
 7373SOL     H248319   0.689   1.179   5.759 -2.6129 -0.7680  0.5918
 7374SOL    OH248320   6.110   1.088   0.136 -0.3716  0.2082 -0.4203
 7374SOL     H148321   6.068   1.005   0.113 -0.5661  0.6829 -1.7720
 7374SOL     H248322   6.150   1.071   0.222  0.2722 -1.5414 -1.0408
 7375SOL    OH248323   6.394   3.366   6.914 -0.1770  0.6638 -0.5298
 7375SOL     H148324   6.372   3.447   6.959 -0.2113  0.1344  0.4040
 7375SOL     H248325   6.356   3.297   6.967  1.0565 -0.0595 -0.5577
 7376SOL    OH248326   7.184   3.648   6.496  0.6730  0.0056 -0.3347
 7376SOL     H148327   7.253   3.587   6.524  0.5432  0.5641  1.1941
 7376SOL     H248328   7.173   3.628   6.403  2.6025 -0.3909 -0.5162
 7377SOL    OH248329   7.820   2.408   0.636 -0.0205 -0.1259  0.6806
 7377SOL     H148330   7.732   2.377   0.656 -0.5230  0.4388 -0.6392
 7377SOL     H248331   7.868   2.330   0.610 -0.8043 -0.0688 -0.9636
 7378SOL    OH248332   7.611   5.165   1.635  0.2250 -0.5025 -0.0132
 7378SOL     H148333   7.592   5.210   1.553  0.7261 -0.4694 -0.1142
 7378SOL     H248334   7.661   5.088   1.608  1.9727  0.4624  0.4157
 7379SOL    OH248335   2.595   6.007   0.887  0.0185  0.5062  0.2232
 7379SOL     H148336   2.681   5.965   0.878 -0.3406 -0.2697  0.3444
 7379SOL     H248337   2.596   6.077   0.822  0.3668 -0.1409 -0.4785
 7380SOL    OH248338   2.150   6.512   0.818 -0.7361 -0.6830  0.4654
 7380SOL     H148339   2.078   6.488   0.876  0.3704  0.8970  2.5758
 7380SOL     H248340   2.229   6.490   0.868  0.2336  0.6470 -0.4564
 7381SOL    OH248341   7.666   4.951   0.910 -0.4308  0.0949 -0.4900
 7381SOL     H148342   7.658   4.863   0.873  0.6028 -0.5646  0.8154
 7381SOL     H248343   7.755   4.954   0.946 -0.4074  1.7219 -0.6483
 7382SOL    OH248344   3.862   6.797   7.233 -0.3770  0.3169  0.0388
 7382SOL     H148345   3.796   6.799   7.303 -1.2760 -2.3173 -0.6789
 7382SOL     H248346   3.928   6.736   7.265  0.1445  0.5415 -0.6020
 7383SOL    OH248347   3.138   3.933   0.093  0.1577 -0.1920  1.0026
 7383SOL     H148348   3.054   3.977   0.081 -0.1372 -0.8259  0.6847
 7383SOL     H248349   3.163   3.906   0.005  0.0825 -1.1001  1.2516
 7384SOL    OH248350   6.595   3.852   2.423 -0.4090 -0.5801  0.1547
 7384SOL     H148351   6.507   3.888   2.414 -0.3595 -0.7501 -1.0421
 7384SOL     H248352   6.630   3.849   2.334  0.2033 -2.0249  0.4196
 7385SOL    OH248353   2.365   5.260   7.201 -0.0089  0.4627  0.3105
 7385SOL     H148354   2.301   5.222   7.261 -0.6109  0.4312 -0.3472
 7385SOL     H248355   2.326   5.344   7.175 -0.8847 -0.5708 -1.8763
 7386SOL    OH248356   2.402   0.441   8.261  0.3843 -0.3262 -0.4959
 7386SOL     H148357   2.412   0.461   8.168 -0.3343 -0.3792 -0.5900
 7386SOL     H248358   2.321   0.484   8.287  0.4080 -0.5839  0.0269
 7387SOL    OH248359   6.800   6.859   6.393  0.0047  0.1271  0.0203
 7387SOL     H148360   6.791   6.904   6.478  0.5050 -0.9976  0.6815
 7387SOL     H248361   6.894   6.865   6.373  0.1735 -1.0703  0.3822
 7388SOL    OH248362   0.386   2.172   7.691  0.0906  0.2661  0.3768
 7388SOL     H148363   0.341   2.256   7.703  0.8902  0.6173  0.9491
 7388SOL     H248364   0.363   2.122   7.769 -0.5723 -0.1462 -0.0712
 7389SOL    OH248365   4.094   1.963   0.854  0.4708 -0.5918 -0.3074
 7389SOL     H148366   4.182   1.941   0.825  1.0210  1.2589 -0.0832
 7389SOL     H248367   4.076   2.049   0.816 -1.4141 -1.1411 -0.7109
 7390SOL    OH248368   0.095   6.821   6.220 -0.4009 -0.3315  0.0568
 7390SOL     H148369   0.038   6.747   6.200  1.5569 -1.8981  0.1602
 7390SOL     H248370   0.113   6.812   6.314  1.8248 -1.1845 -0.4203
 7391SOL    OH248371   3.923   4.234   7.382  0.0139  0.1473 -0.5459
 7391SOL     H148372   3.954   4.274   7.301  1.0169 -2.5199 -1.5266
 7391SOL     H248373   3.835   4.269   7.394 -0.5234 -0.1737 -3.3132
 7392SOL    OH248374   7.593   4.510   0.131 -0.0733 -0.0010 -0.8082
 7392SOL     H148375   7.588   4.414   0.124 -0.9692  0.0064 -0.3920
 7392SOL     H248376   7.659   4.535   0.067  1.5073 -1.0568  0.3675
 7393SOL    OH248377   5.960   3.853   1.807 -0.3011  0.3950 -0.3912
 7393SOL     H148378   6.017   3.910   1.756 -0.5021  0.7169 -0.2588
 7393SOL     H248379   6.014   3.777   1.828 -0.0184  0.5564 -0.5321
 7394SOL    OH248380   1.477   7.431   0.808  0.2945 -0.4647 -0.1686
 7394SOL     H148381   1.464   7.474   0.723  2.1692 -0.5390 -0.4954
 7394SOL     H248382   1.516   7.499   0.863  0.1040 -0.7540  0.3267
 7395SOL    OH248383   5.617   3.233   0.979  0.4097  0.6654 -0.0064
 7395SOL     H148384   5.697   3.277   1.004  1.1963  0.3527 -1.8431
 7395SOL     H248385   5.583   3.195   1.060  2.4609  0.2321  0.6636
 7396SOL    OH248386   7.666   6.578   6.019  0.3845 -0.1407  0.2721
 7396SOL     H148387   7.719   6.500   6.036  1.4417  0.0481 -2.0041
 7396SOL     H248388   7.651   6.616   6.106  0.8488 -2.2298  1.2835
 7397SOL    OH248389   4.744   6.214   6.737  0.2241  0.0400 -0.3954
 7397SOL     H148390   4.794   6.255   6.808 -0.3019  0.1095 -0.0583
 7397SOL     H248391   4.663   6.266   6.733  0.3279  0.1458 -1.1657
 7398SOL    OH248392   3.989   2.608   7.191  0.2759 -0.8611  0.3434
 7398SOL     H148393   3.978   2.566   7.106 -0.2893 -1.5475  0.7495
 7398SOL     H248394   4.011   2.699   7.171  0.5301 -1.1181 -0.5343
 7399SOL    OH248395   5.862   7.020   7.661  0.0228 -0.7416 -0.0019
 7399SOL     H148396   5.776   6.979   7.652  0.0747 -0.7124 -0.6694
 7399SOL     H248397   5.922   6.961   7.615 -0.2181  1.0979 -2.8623
 7400SOL    OH248398   1.755   0.378   1.577 -0.0572 -0.1124 -0.1354
 7400SOL     H148399   1.673   0.337   1.549  0.5241 -1.4811  0.1292
 7400SOL     H248400   1.807   0.385   1.497  0.5756 -1.6266  0.1272
 7401SOL    OH248401   6.421   1.473   0.960 -0.2832  0.3067 -0.5834
 7401SOL     H148402   6.352   1.433   0.907 -1.7877  0.2337  1.3472
 7401SOL     H248403   6.481   1.401   0.978 -0.1721  0.1552 -1.5157
 7402SOL    OH248404   5.505   5.537   8.099  0.9280  0.4142  0.4767
 7402SOL     H148405   5.576   5.599   8.114  2.2617 -1.2339  1.1727
 7402SOL     H248406   5.516   5.470   8.167 -1.3467  0.1684  0.6517
 7403SOL    OH248407   2.087   5.642   7.561  0.1247  0.1403 -0.3280
 7403SOL     H148408   2.147   5.692   7.617  0.1562 -1.4223  1.0862
 7403SOL     H248409   2.144   5.595   7.500  0.3024 -0.4449  0.2719
 7404SOL    OH248410   3.443   5.148   1.081 -0.2047 -1.0193  0.7561
 7404SOL     H148411   3.380   5.096   1.032  1.9174 -3.1981  0.2240
 7404SOL     H248412   3.469   5.218   1.021 -2.6158  0.3568  1.2555
 7405SOL    OH248413   5.772   0.344   8.049  0.1246 -0.1931 -0.6869
 7405SOL     H148414   5.858   0.324   8.086 -0.6154  1.8259  2.2500
 7405SOL     H248415   5.780   0.433   8.016 -0.7450 -0.1483 -0.7843
 7406SOL    OH248416   4.658   5.568   6.268  0.4200 -0.1352  0.3086
 7406SOL     H148417   4.630   5.502   6.331  0.0335  0.1964  0.4853
 7406SOL     H248418   4.639   5.530   6.182  0.4350 -0.3559  0.4045
 7407SOL    OH248419   6.410   1.517   7.113 -0.5651  0.4604  0.0566
 7407SOL     H148420   6.375   1.602   7.087 -2.2185  0.4516  2.1909
 7407SOL     H248421   6.500   1.518   7.080 -0.4775  3.1305  0.2759
 7408SOL    OH248422   4.410   4.656   5.805  0.2731  0.3434 -0.0169
 7408SOL     H148423   4.348   4.640   5.876 -0.3809 -0.4587 -0.7585
 7408SOL     H248424   4.476   4.586   5.816 -0.8358 -0.9349 -1.3069
 7409SOL    OH248425   2.386   1.202   0.693  0.0138  0.3349 -0.6108
 7409SOL     H148426   2.360   1.278   0.745 -0.9257  0.9540 -1.9367
 7409SOL     H248427   2.468   1.229   0.651  1.5410 -0.7027  1.6501
 7410SOL    OH248428   3.786   3.201   6.163 -0.1902 -0.1048 -0.0545
 7410SOL     H148429   3.824   3.123   6.201 -0.2346 -0.8116 -1.4254
 7410SOL     H248430   3.692   3.192   6.178 -0.2333 -0.5123 -0.5441
 7411SOL    OH248431   1.968   2.424   7.175  0.4696 -0.2822 -0.2059
 7411SOL     H148432   1.879   2.391   7.186  0.4788 -0.3116 -0.2177
 7411SOL     H248433   2.016   2.350   7.138  0.7557 -0.6249  0.8131
 7412SOL    OH248434   2.013   1.907   0.320  0.5063 -0.0806  0.1853
 7412SOL     H148435   1.988   1.868   0.236  0.7892  0.1013  0.0169
 7412SOL     H248436   1.930   1.936   0.358  0.6111  2.2118 -1.2109
 7413SOL    OH248437   4.274   1.896   7.643  0.1912 -0.0705 -0.1189
 7413SOL     H148438   4.226   1.882   7.725  1.0665 -0.5720  0.3164
 7413SOL     H248439   4.350   1.948   7.668 -0.9050  2.0428 -1.0643
 7414SOL    OH248440   4.256   6.059   7.623 -0.1213  0.2161  0.4652
 7414SOL     H148441   4.236   5.966   7.634  1.6297 -0.3253 -0.6899
 7414SOL     H248442   4.253   6.094   7.712  1.2603 -1.4084  1.1977
 7415SOL    OH248443   2.927   4.567   0.379 -0.7911  0.1397  0.1297
 7415SOL     H148444   2.907   4.630   0.310 -1.8167 -1.6063 -1.2194
 7415SOL     H248445   2.842   4.550   0.421 -0.6429 -0.7797  0.0800
 7416SOL    OH248446   6.326   5.557   7.186 -0.3739 -0.3415  0.0588
 7416SOL     H148447   6.406   5.511   7.212 -0.0525  0.9359  1.3903
 7416SOL     H248448   6.328   5.556   7.090  0.9192 -0.8669  0.0830
 7417SOL    OH248449   4.118   1.453   1.160  0.4983  0.2898 -0.4430
 7417SOL     H148450   4.098   1.414   1.075 -0.3696  0.1269 -0.1704
 7417SOL     H248451   4.187   1.516   1.142  1.0459 -0.4944 -1.0956
 7418SOL    OH248452   4.350   2.391   7.922 -0.0460 -0.2449  0.4182
 7418SOL     H148453   4.412   2.411   7.851  0.0699 -1.1586  0.2534
 7418SOL     H248454   4.296   2.469   7.930 -0.6453 -0.4828 -1.2895
 7419SOL    OH248455   1.789   2.727   1.040  0.2857 -0.2178  0.0509
 7419SOL     H148456   1.867   2.771   1.005  1.0632  2.1340  4.3524
 7419SOL     H248457   1.822   2.644   1.075  0.6417  0.1190  0.5333
 7420SOL    OH248458   5.105   6.542   1.242  0.4978  0.4428  0.8191
 7420SOL     H148459   5.167   6.615   1.233 -0.1990  0.7860 -1.5372
 7420SOL     H248460   5.108   6.498   1.157 -0.1264 -1.4628  1.7594
 7421SOL    OH248461   1.322   4.068   0.110  0.2476  0.3828 -0.3941
 7421SOL     H148462   1.282   4.154   0.125  1.7401  0.7137  1.9088
 7421SOL     H248463   1.411   4.077   0.142  1.3500 -1.1983 -2.8508
 7422SOL    OH248464   5.961   1.984   0.445 -0.1128  0.0114  0.5600
 7422SOL     H148465   5.891   1.952   0.387  1.9763 -1.8758 -1.0044
 7422SOL     H248466   5.980   2.072   0.413 -0.6396 -0.0874 -0.0396
 7423SOL    OH248467   5.860   0.694   7.658  0.0909  0.4781  0.3951
 7423SOL     H148468   5.835   0.694   7.566  1.8934 -5.2198 -0.2584
 7423SOL     H248469   5.781   0.666   7.704  0.8823 -2.8867 -0.1634
 7424SOL    OH248470   7.289   7.779   2.545  0.4139  0.2966  0.4159
 7424SOL     H148471   7.254   7.855   2.591 -1.0551 -0.0302 -0.1363
 7424SOL     H248472   7.277   7.706   2.605 -0.7862  0.0096 -0.1576
 7425SOL    OH248473   6.422   0.071   7.611 -0.2327  0.4099  0.4774
 7425SOL     H148474   6.499   0.075   7.553 -0.6051  1.2996  0.0453
 7425SOL     H248475   6.348   0.079   7.551 -0.7274 -1.8523  0.7230
 7426SOL    OH248476   0.747   1.299   2.742  0.0003 -0.0681 -0.0776
 7426SOL     H148477   0.755   1.287   2.837 -0.5015 -0.4174 -0.0756
 7426SOL     H248478   0.654   1.313   2.727 -0.0068 -0.6335 -0.5880
 7427SOL    OH248479   0.742   3.773   0.387  0.2685 -0.0115 -0.3830
 7427SOL     H148480   0.824   3.723   0.393  0.6621  0.7688  1.0664
 7427SOL     H248481   0.762   3.857   0.429 -1.3175  0.1228  0.1378
 7428SOL    OH248482   4.974   2.210   6.510  0.9232  0.1730  0.1991
 7428SOL     H148483   4.983   2.212   6.415  0.1284 -1.5880  0.0629
 7428SOL     H248484   5.062   2.227   6.543  0.9586  2.1453 -0.8212
 7429SOL    OH248485   7.365   1.482   6.952  0.2013 -0.2344 -1.0875
 7429SOL     H148486   7.299   1.453   6.889 -0.4687 -2.2247  0.4799
 7429SOL     H248487   7.449   1.472   6.906 -0.2948 -1.4832 -1.7290
 7430SOL    OH248488   1.020   7.621   0.393 -0.4499 -0.1476  0.1022
 7430SOL     H148489   1.108   7.583   0.394 -1.0003 -1.4577  0.4899
 7430SOL     H248490   0.985   7.599   0.307 -1.1917 -1.5696  0.7388
 7431SOL    OH248491   1.891   1.806   7.926 -0.0592  0.3910 -0.5651
 7431SOL     H148492   1.854   1.882   7.971 -0.7996 -1.2572  1.6763
 7431SOL     H248493   1.815   1.755   7.898  0.4518 -0.9137  0.3938
 7432SOL    OH248494   0.288   7.186   5.864 -0.0105 -0.3930  0.2134
 7432SOL     H148495   0.216   7.236   5.825  0.2544 -0.2484 -0.0957
 7432SOL     H248496   0.366   7.217   5.818  0.4424  0.5266  1.5775
 7433SOL    OH248497   2.336   4.665   1.120  0.1030  0.1765  0.3096
 7433SOL     H148498   2.418   4.650   1.166 -0.6429 -0.4092  1.4899
 7433SOL     H248499   2.347   4.751   1.078  0.6445  0.9243  1.9472
 7434SOL    OH248500   2.351   3.216   7.545  0.5311 -0.8798 -1.0233
 7434SOL     H148501   2.287   3.146   7.529  0.8565 -1.9596  2.1620
 7434SOL     H248502   2.298   3.296   7.551 -0.1194 -1.2367 -1.8231
 7435SOL    OH248503   3.686   5.258   1.532  0.0607 -0.1220 -0.2633
 7435SOL     H148504   3.670   5.347   1.500 -1.0323 -0.7319 -1.4807
 7435SOL     H248505   3.656   5.202   1.461  1.0638 -1.4680  0.3573
 7436SOL    OH248506   5.740   3.856   7.134  0.1855 -0.8401  0.7741
 7436SOL     H148507   5.699   3.770   7.119 -1.0784 -0.0121 -0.6481
 7436SOL     H248508   5.681   3.900   7.194 -2.6869  1.4673 -3.5347
 7437SOL    OH248509   2.588   1.046   1.565  0.6215 -0.1725 -0.4301
 7437SOL     H148510   2.516   1.049   1.502  0.9824 -1.4768 -0.9401
 7437SOL     H248511   2.639   0.969   1.538  1.1561 -0.3501  1.0555
 7438SOL    OH248512   0.040   7.309   5.788  0.5136 -0.3270  0.1452
 7438SOL     H148513  -0.041   7.357   5.773 -0.2272 -1.0508  1.7012
 7438SOL     H248514   0.051   7.255   5.710  0.8501  1.6300 -1.1949
 7439SOL    OH248515   3.705   4.393   0.489 -0.0499  0.4708 -0.0848
 7439SOL     H148516   3.626   4.410   0.539 -1.2016 -1.0333 -1.3321
 7439SOL     H248517   3.763   4.347   0.551  0.2085  2.3232  1.0747
 7440SOL    OH248518   0.271   2.713   7.204  0.0390  0.6925  0.3064
 7440SOL     H148519   0.187   2.709   7.251 -0.3728  1.8544 -0.3005
 7440SOL     H248520   0.298   2.805   7.211  1.2399  0.3340  0.4508
 7441SOL    OH248521   1.811   3.409   1.676 -0.0483 -0.4858  0.3444
 7441SOL     H148522   1.721   3.440   1.666 -0.0915 -0.6247  0.3119
 7441SOL     H248523   1.831   3.424   1.769 -0.6309 -1.8990  0.6962
 7442SOL    OH248524   4.729   4.903   6.599  0.0951  0.3082  0.1707
 7442SOL     H148525   4.748   4.898   6.692 -2.4833 -0.8132  0.6709
 7442SOL     H248526   4.782   4.833   6.559  0.1889 -0.0639  0.9462
 7443SOL    OH248527   0.676   2.634   7.008 -0.3157  0.4602  0.3950
 7443SOL     H148528   0.756   2.604   7.050 -1.1364  0.6848  2.1451
 7443SOL     H248529   0.628   2.679   7.077 -0.8196  2.5490 -1.2460
 7444SOL    OH248530   7.824   0.501   0.922  0.2205  0.2885 -0.6387
 7444SOL     H148531   7.862   0.484   0.835 -1.1417 -0.3385 -1.1287
 7444SOL     H248532   7.737   0.461   0.918 -0.6486  2.0575  0.3230
 7445SOL    OH248533   5.308   6.635   0.429 -0.4903  0.0238  0.4905
 7445SOL     H148534   5.357   6.575   0.373 -2.1508 -0.8368 -0.0846
 7445SOL     H248535   5.327   6.722   0.395 -0.0959 -0.3682 -0.3018
 7446SOL    OH248536   6.558   6.755   6.643 -0.1511  0.6923 -0.3784
 7446SOL     H148537   6.599   6.755   6.556 -1.3830 -1.7538 -1.0093
 7446SOL     H248538   6.464   6.760   6.626 -0.3419  1.5790  0.8685
 7447SOL    OH248539   6.296   2.411   6.970  0.1597  0.0887  0.3123
 7447SOL     H148540   6.284   2.352   6.896 -1.8018  0.6915  0.1237
 7447SOL     H248541   6.295   2.354   7.047  1.3872 -0.4451 -0.0469
 7448SOL    OH248542   5.600   0.949   7.029 -0.3184  0.0528  0.3770
 7448SOL     H148543   5.632   0.928   7.117  0.6890  0.2309  0.0700
 7448SOL     H248544   5.539   1.021   7.043 -1.3602 -0.9592  1.0911
 7449SOL    OH248545   7.540   5.472   8.006 -0.3785 -0.3171 -0.9491
 7449SOL     H148546   7.546   5.501   7.915 -1.6294  1.0424 -0.6132
 7449SOL     H248547   7.456   5.505   8.036 -0.4034 -1.5931  0.4241
 7450SOL    OH248548   1.944   6.694   5.673 -0.1497  0.1632  0.9963
 7450SOL     H148549   1.879   6.628   5.645 -0.3518  0.3949  0.9202
 7450SOL     H248550   1.920   6.773   5.625 -1.2345  0.9062  2.7303
 7451SOL    OH248551   5.806   5.640   6.954 -0.0102  0.1899  0.5950
 7451SOL     H148552   5.833   5.711   6.896  0.2316 -0.0210  0.4486
 7451SOL     H248553   5.722   5.611   6.919 -0.6012  1.0712  1.2494
 7452SOL    OH248554   5.463   7.526   7.739  0.4462  0.3141  0.1979
 7452SOL     H148555   5.419   7.523   7.824  0.9041  0.2594  0.4341
 7452SOL     H248556   5.411   7.588   7.688  0.8878  1.3123  0.9275
 7453SOL    OH248557   1.708   0.529   8.062 -0.0760 -0.1110  0.3229
 7453SOL     H148558   1.715   0.452   8.119  0.1429  0.6988  1.3910
 7453SOL     H248559   1.773   0.590   8.096 -0.4581  0.6733 -0.3479
 7454SOL    OH248560   2.386   4.870   6.636 -0.2818 -0.4849  0.3553
 7454SOL     H148561   2.471   4.865   6.592  0.2881  0.6755  1.2941
 7454SOL     H248562   2.406   4.854   6.728 -0.5060  3.4449  1.1687
 7455SOL    OH248563   1.131   5.236   0.803  0.0088  0.2529 -0.2332
 7455SOL     H148564   1.090   5.230   0.716  0.7088  2.2825 -0.7472
 7455SOL     H248565   1.064   5.205   0.864 -1.0660  0.3177 -1.3638
 7456SOL    OH248566   1.823   6.533   0.883 -0.2083  0.5415 -0.0778
 7456SOL     H148567   1.740   6.578   0.865 -0.5566  0.0732  0.3339
 7456SOL     H248568   1.857   6.510   0.797  0.1762  1.9537 -0.3129
 7457SOL    OH248569   5.905   5.856   0.212  0.3372  0.1485 -0.3206
 7457SOL     H148570   5.810   5.866   0.210  0.1578 -1.6685 -1.9300
 7457SOL     H248571   5.919   5.767   0.246  1.3868 -0.3388 -1.9564
 7458SOL    OH248572   0.365   1.678   0.102 -0.0115 -0.3053 -0.7228
 7458SOL     H148573   0.400   1.645   0.019  0.4296 -1.4992 -0.0739
 7458SOL     H248574   0.273   1.650   0.101  0.4355 -1.8448 -0.0446
 7459SOL    OH248575   4.842   1.030   7.195  0.1315 -0.1841  0.2524
 7459SOL     H148576   4.774   0.964   7.183  0.6365 -0.7731  0.5702
 7459SOL     H248577   4.849   1.041   7.290 -1.0356  1.4863  0.1721
 7460SOL    OH248578   7.507   2.481   1.859 -0.1197  0.4153  0.3552
 7460SOL     H148579   7.460   2.460   1.778  0.9134  1.0267 -0.4049
 7460SOL     H248580   7.437   2.487   1.925 -0.9208 -0.5550 -0.3728
 7461SOL    OH248581   6.517   5.828   0.739  0.8834 -0.2255 -0.2478
 7461SOL     H148582   6.482   5.831   0.650 -1.3544  0.0088  0.5913
 7461SOL     H248583   6.526   5.920   0.764  0.0166 -0.2796  0.3015
 7462SOL    OH248584   6.390   3.966   7.664  0.3927 -0.2914 -0.3977
 7462SOL     H148585   6.431   3.887   7.700 -0.2703 -0.6411 -0.4028
 7462SOL     H248586   6.325   3.933   7.602 -0.7556  0.2235  0.5149
 7463SOL    OH248587   1.846   0.108   1.163 -0.0423  0.3868  0.6820
 7463SOL     H148588   1.866   0.040   1.099 -0.5676  1.5284 -0.7127
 7463SOL     H248589   1.932   0.144   1.186  0.2948 -1.1386  1.8926
 7464SOL    OH248590   0.730   4.483   7.501  0.3447  0.7139 -0.2605
 7464SOL     H148591   0.786   4.455   7.429  4.3336 -1.3728  3.3825
 7464SOL     H248592   0.670   4.410   7.515  1.1064  0.1314 -0.0092
 7465SOL    OH248593   7.315   4.496   0.129 -0.0334  0.0652 -0.0941
 7465SOL     H148594   7.411   4.492   0.123 -0.0234 -0.3728  0.2891
 7465SOL     H248595   7.286   4.409   0.104 -0.3441  0.2480 -0.3699
 7466SOL    OH248596   3.518   3.343   1.394  0.2783 -0.4062  0.2733
 7466SOL     H148597   3.508   3.298   1.310 -0.2173 -0.4449  0.3473
 7466SOL     H248598   3.570   3.421   1.375 -0.6624  0.1010 -0.2536
 7467SOL    OH248599   5.705   0.112   2.099  0.5371 -0.2880  0.1718
 7467SOL     H148600   5.695   0.163   2.019  0.3762  1.2409  1.1348
 7467SOL     H248601   5.708   0.021   2.070  1.0831  0.2786 -1.6112
 7468SOL    OH248602   7.714   2.588   7.619 -0.1366 -0.6456  0.1485
 7468SOL     H148603   7.695   2.494   7.620 -1.4101 -0.3880  2.8615
 7468SOL     H248604   7.738   2.609   7.709 -0.5126  1.7880 -0.2910
 7469SOL    OH248605   5.088   0.318   1.928 -0.1881 -0.4312  0.1251
 7469SOL     H148606   5.104   0.412   1.925  0.4830 -0.5414  0.1337
 7469SOL     H248607   5.119   0.291   2.014 -2.3457 -0.3242  0.9722
 7470SOL    OH248608   3.683   6.118   1.190  0.0091 -0.8073  0.0909
 7470SOL     H148609   3.719   6.201   1.218  0.9178 -1.1002 -0.1911
 7470SOL     H248610   3.631   6.139   1.112 -0.0718 -0.4525  0.2410
 7471SOL    OH248611   5.333   3.322   0.107  0.3416  0.0988  0.2866
 7471SOL     H148612   5.267   3.286   0.048  0.4982  0.4369 -0.0951
 7471SOL     H248613   5.302   3.300   0.195 -0.3703  0.4226  0.1118
 7472SOL    OH248614   1.545   3.077   0.407 -0.0737  0.5665  0.6419
 7472SOL     H148615   1.545   3.040   0.319 -0.7226  0.5025  0.6682
 7472SOL     H248616   1.476   3.143   0.406 -0.5509  0.0938  1.2938
 7473SOL    OH248617   3.218   3.996   7.543 -0.5806  0.0007 -0.0956
 7473SOL     H148618   3.262   3.971   7.462 -1.0853 -0.0167 -0.3713
 7473SOL     H248619   3.128   4.015   7.516 -1.2479 -1.7918  0.7425
 7474SOL    OH248620   5.363   4.537   1.681  0.2656 -0.3036  0.2400
 7474SOL     H148621   5.394   4.450   1.703  0.0831  0.1907  2.5485
 7474SOL     H248622   5.310   4.564   1.756  1.9092  2.5735  0.4444
 7475SOL    OH248623   3.944   1.996   2.003  0.0680 -0.4040  0.1056
 7475SOL     H148624   3.877   2.038   2.057  1.2298  0.0975  1.1981
 7475SOL     H248625   3.960   1.912   2.046  1.2243  0.1310  0.7574
 7476SOL    OH248626   0.560   3.803   1.546  0.6988 -0.1083 -0.3113
 7476SOL     H148627   0.567   3.892   1.512 -1.9305  0.2325 -0.0709
 7476SOL     H248628   0.549   3.748   1.469 -0.2970  0.0959 -0.3229
 7477SOL    OH248629   4.198   5.179   7.524 -0.4406  0.3206  0.1819
 7477SOL     H148630   4.177   5.094   7.487 -0.7781  0.0741  0.9359
 7477SOL     H248631   4.118   5.231   7.513  0.3943  1.2158 -2.1313
 7478SOL    OH248632   4.800   2.561   2.214 -0.3343  0.3439 -0.0290
 7478SOL     H148633   4.725   2.502   2.203 -1.9296  2.5321 -1.3221
 7478SOL     H248634   4.844   2.529   2.292 -2.3892 -1.2846  0.5063
 7479SOL    OH248635   6.255   6.357   7.833 -0.0085 -0.5493 -0.4686
 7479SOL     H148636   6.333   6.320   7.875  0.2276  0.7208  0.2334
 7479SOL     H248637   6.250   6.313   7.748  0.7555 -1.5466 -0.0028
 7480SOL    OH248638   1.695   5.454   8.277  0.0088 -0.1585  0.4450
 7480SOL     H148639   1.679   5.545   8.249  1.8313  0.1423  0.3063
 7480SOL     H248640   1.687   5.403   8.197  1.3163  0.1951  0.0803
 7481SOL    OH248641   4.398   3.839   6.639 -0.4125  0.0454 -0.0455
 7481SOL     H148642   4.353   3.787   6.706 -0.6732 -0.3739 -0.5399
 7481SOL     H248643   4.364   3.806   6.556 -0.6373  1.0667 -0.3677
 7482SOL    OH248644   1.593   5.179   6.630 -0.7255 -0.0370 -0.2606
 7482SOL     H148645   1.663   5.182   6.696 -3.3317 -0.2938  2.5850
 7482SOL     H248646   1.558   5.267   6.627 -3.0036 -0.8637  1.3548
 7483SOL    OH248647   0.601   3.039   7.124  0.0935  0.2481  0.2738
 7483SOL     H148648   0.509   3.027   7.146 -0.7723  3.4995 -1.2486
 7483SOL     H248649   0.649   3.011   7.202 -2.2762  0.5185  1.8727
 7484SOL    OH248650   0.948   5.574   2.627  0.0286  0.1980  0.2193
 7484SOL     H148651   1.001   5.545   2.554 -0.8519  0.0085 -0.3581
 7484SOL     H248652   0.985   5.659   2.652 -0.0562  0.5573 -0.8496
 7485SOL    OH248653   2.435   2.063   5.807  0.1646 -0.0352 -0.6887
 7485SOL     H148654   2.347   2.085   5.839  0.7758  0.0617  0.9693
 7485SOL     H248655   2.430   2.076   5.713 -1.2725  1.1105 -0.4742
 7486SOL    OH248656   1.171   4.578   8.122 -0.9769 -0.6507 -0.0100
 7486SOL     H148657   1.082   4.595   8.153 -0.5377  0.0709  0.8701
 7486SOL     H248658   1.184   4.639   8.050 -1.3816 -1.1454 -0.5173
 7487SOL    OH248659   4.108   2.802   0.040  0.9758 -0.3001 -0.5092
 7487SOL     H148660   4.186   2.801  -0.016  2.1034  0.7557  1.0103
 7487SOL     H248661   4.132   2.748   0.115 -0.2005 -0.9545 -0.5888
 7488SOL    OH248662   6.154   3.148   0.849 -0.8647 -0.1561  0.2344
 7488SOL     H148663   6.235   3.101   0.827 -0.3490  0.6132  0.4998
 7488SOL     H248664   6.135   3.122   0.939 -1.0707 -0.5651  0.0733
 7489SOL    OH248665   6.721   5.862   5.873  0.7005  0.4217  0.1336
 7489SOL     H148666   6.763   5.780   5.899  0.0800  0.4218  1.1899
 7489SOL     H248667   6.791   5.914   5.834  0.7991 -1.1569 -1.8638
 7490SOL    OH248668   1.511   1.115   0.149  0.2117 -0.3731 -0.0567
 7490SOL     H148669   1.561   1.196   0.161 -0.3196  0.2631 -2.0436
 7490SOL     H248670   1.535   1.062   0.225  1.6211  1.0952  0.5721
 7491SOL    OH248671   5.222   1.220   8.014 -0.1326  0.1381 -0.0180
 7491SOL     H148672   5.266   1.167   7.949 -1.5757  0.0349 -0.9358
 7491SOL     H248673   5.167   1.158   8.062 -2.2294  0.8353 -1.4402
 7492SOL    OH248674   3.272   2.515   7.204 -0.0455 -0.7168 -0.6154
 7492SOL     H148675   3.197   2.534   7.148 -0.4929  0.1251  0.2645
 7492SOL     H248676   3.340   2.575   7.175 -1.1133  1.5694  1.4491
 7493SOL    OH248677   4.551   7.260   7.528  0.7674 -0.4707  0.3545
 7493SOL     H148678   4.492   7.299   7.593  0.0370 -0.9755  0.0049
 7493SOL     H248679   4.569   7.172   7.563 -1.3725 -1.5652 -1.1782
 7494SOL    OH248680   6.774   2.215   8.128  0.4254 -0.9189 -0.4551
 7494SOL     H148681   6.723   2.296   8.129  0.2404 -1.0328 -0.5978
 7494SOL     H248682   6.805   2.207   8.037  1.2956 -0.4806 -0.2059
 7495SOL    OH248683   0.795   5.057   5.629  0.1156 -0.6523 -0.4252
 7495SOL     H148684   0.850   5.105   5.568 -0.9263 -1.8241 -2.3373
 7495SOL     H248685   0.852   4.986   5.661  0.5118 -0.3337 -0.4222
 7496SOL    OH248686   6.835   5.750   0.721  0.1701  0.1811  0.2221
 7496SOL     H148687   6.891   5.822   0.750  2.1047 -2.1611  2.4984
 7496SOL     H248688   6.754   5.761   0.770 -0.0474  1.4927 -0.3952
 7497SOL    OH248689   1.401   7.564   5.981 -0.6488 -0.0501 -0.0164
 7497SOL     H148690   1.456   7.584   5.906 -2.4898  2.3170 -0.8137
 7497SOL     H248691   1.333   7.506   5.947 -1.2276  0.6650 -0.0896
 7498SOL    OH248692   2.596   7.549   1.628 -0.7684  0.0090 -0.1174
 7498SOL     H148693   2.648   7.471   1.608 -0.5056  0.0242  0.4890
 7498SOL     H248694   2.520   7.542   1.570 -0.4039 -0.3355 -0.5627
 7499SOL    OH248695   2.501   3.950   6.429  0.0152  0.1004  0.2729
 7499SOL     H148696   2.475   3.917   6.343  0.3901 -2.6620  1.1822
 7499SOL     H248697   2.440   4.022   6.447 -2.1254 -1.3995 -0.8828
 7500SOL    OH248698   1.422   3.041   7.013 -0.6425  0.0609  0.2623
 7500SOL     H148699   1.391   3.114   6.959 -0.4748  0.1783  0.3262
 7500SOL     H248700   1.515   3.033   6.993 -0.6795 -0.1913  0.1898
 7501SOL    OH248701   4.475   2.298   6.629 -0.3509 -0.6874 -0.5066
 7501SOL     H148702   4.478   2.352   6.551 -1.7466  0.0185 -0.0815
 7501SOL     H248703   4.557   2.248   6.627  0.1377  0.1549 -1.8080
 7502SOL    OH248704   7.891   6.420  -0.003  0.2178  0.1802 -0.7182
 7502SOL     H148705   7.930   6.496   0.039  0.2164  0.5947 -1.4503
 7502SOL     H248706   7.805   6.450  -0.032 -0.1748 -0.3803 -0.1682
 7503SOL    OH248707   0.793   3.436   0.513  0.4106 -0.8608 -0.4385
 7503SOL     H148708   0.704   3.470   0.512  0.1999 -0.8372  4.5493
 7503SOL     H248709   0.785   3.343   0.492 -0.9749 -1.1177  1.1613
 7504SOL    OH248710   4.131   4.059   0.674  0.2162  0.3836 -0.1726
 7504SOL     H148711   4.166   4.137   0.631  2.4208  0.2595  1.3018
 7504SOL     H248712   4.124   4.084   0.766  0.5486 -1.0346  0.2514
 7505SOL    OH248713   7.115   7.295   7.748  0.1814 -0.0593  0.1322
 7505SOL     H148714   7.091   7.276   7.657  0.3464  1.4814 -0.2383
 7505SOL     H248715   7.132   7.389   7.750  0.4810 -0.1289  1.6954
 7506SOL    OH248716   1.030   0.783   2.411  0.0079 -0.1847  0.1265
 7506SOL     H148717   1.078   0.704   2.437  1.2651  0.4684 -0.1387
 7506SOL     H248718   1.046   0.845   2.482  0.2652  0.3265 -0.3712
 7507SOL    OH248719   1.678   4.123   6.141  0.5586 -0.0241 -0.1937
 7507SOL     H148720   1.618   4.048   6.145  0.0690  0.4285  1.5508
 7507SOL     H248721   1.753   4.095   6.194  0.9077  0.2641 -0.5384
 7508SOL    OH248722   2.163   2.725   6.685 -0.4267  0.2833 -0.3630
 7508SOL     H148723   2.153   2.653   6.747  0.1911 -0.4814 -1.1365
 7508SOL     H248724   2.248   2.710   6.643  0.3788  2.2632  0.4667
 7509SOL    OH248725   7.733   5.441   2.205  0.3986  0.0867  0.0904
 7509SOL     H148726   7.693   5.502   2.267  0.7976 -0.0323  0.4660
 7509SOL     H248727   7.679   5.362   2.211  0.5589  0.0007  0.4443
 7510SOL    OH248728   4.386   7.716   1.401  0.1269 -0.4459 -0.1998
 7510SOL     H148729   4.454   7.651   1.423  1.1460 -0.1627 -2.3970
 7510SOL     H248730   4.307   7.663   1.387  0.1690 -0.8965  1.1905
 7511SOL    OH248731   2.742   0.683   0.421 -0.2147 -0.0668  0.2783
 7511SOL     H148732   2.655   0.707   0.391 -0.9534 -2.2502  0.6004
 7511SOL     H248733   2.736   0.591   0.444  2.2375 -0.3128  0.1338
 7512SOL    OH248734   1.578   4.883   2.331  0.2153  0.2762  0.2576
 7512SOL     H148735   1.623   4.909   2.251 -0.6722 -1.3618 -0.8164
 7512SOL     H248736   1.512   4.951   2.346 -1.3756 -0.7275 -1.9075
 7513SOL    OH248737   2.303   1.269   6.199 -0.1279 -0.0041 -0.5257
 7513SOL     H148738   2.272   1.329   6.267  1.9817 -0.1870  0.6547
 7513SOL     H248739   2.302   1.321   6.119  1.6345  1.6507  0.4762
 7514SOL    OH248740   5.507   0.465   1.932 -0.3473  0.0130 -0.1796
 7514SOL     H148741   5.422   0.506   1.947 -0.0061  0.7707 -0.2847
 7514SOL     H248742   5.554   0.528   1.876 -0.3546 -1.1748 -1.5648
 7515SOL    OH248743   2.242   7.512   1.074 -0.6531 -0.1881 -0.5064
 7515SOL     H148744   2.159   7.545   1.107 -1.2049 -2.5907  0.6160
 7515SOL     H248745   2.308   7.552   1.131 -1.2007  0.0443 -0.0362
 7516SOL    OH248746   6.405   4.025   2.833  0.2556 -0.3568  0.0878
 7516SOL     H148747   6.475   4.016   2.768  0.3992 -0.2244  0.2246
 7516SOL     H248748   6.331   4.061   2.784  0.3630 -0.2585 -0.0036
 7517SOL    OH248749   3.162   1.704   6.119  0.0498 -0.1854 -0.0649
 7517SOL     H148750   3.071   1.687   6.092  0.0218  1.6002 -1.1127
 7517SOL     H248751   3.214   1.648   6.062 -0.2509  0.5554 -1.0629
 7518SOL    OH248752   0.713   5.265   1.376  0.1238 -0.4005 -0.2832
 7518SOL     H148753   0.664   5.246   1.296  0.5595 -0.3678 -0.5616
 7518SOL     H248754   0.707   5.185   1.428  1.5185 -1.1158 -1.2258
 7519SOL    OH248755   7.825   1.079   8.013 -0.0400  0.0728 -0.0245
 7519SOL     H148756   7.847   1.096   7.921  1.3244 -1.0419  0.0705
 7519SOL     H248757   7.731   1.064   8.013 -0.0355 -0.0317 -1.2633
 7520SOL    OH248758   4.716   0.649   7.504  0.0830  0.4370  0.8705
 7520SOL     H148759   4.663   0.590   7.559 -1.7823  1.8278  0.6086
 7520SOL     H248760   4.762   0.705   7.566 -0.4143  0.6424  1.0538
 7521SOL    OH248761   6.169   2.741   7.612 -0.2923  0.1745  0.3064
 7521SOL     H148762   6.184   2.651   7.642  0.8474  0.0116 -0.6921
 7521SOL     H248763   6.230   2.794   7.664  0.2410  0.1520 -0.2951
 7522SOL    OH248764   1.327   4.227   7.741  0.0944 -0.0726 -0.2951
 7522SOL     H148765   1.296   4.290   7.676  0.7239  2.2363  1.5332
 7522SOL     H248766   1.253   4.216   7.801  0.0803 -0.8703 -0.4543
 7523SOL    OH248767   6.322   7.234   7.171  0.0422  0.1431  0.0425
 7523SOL     H148768   6.350   7.201   7.085  0.0800  0.3060 -0.0088
 7523SOL     H248769   6.249   7.178   7.196 -0.2010  0.3243 -0.2596
 7524SOL    OH248770   7.912   1.157   7.757 -0.2399 -0.8793 -0.3821
 7524SOL     H148771   7.984   1.114   7.712 -0.3530 -0.7010 -0.7363
 7524SOL     H248772   7.866   1.206   7.688 -1.1801 -1.6455 -0.3139
 7525SOL    OH248773   6.031   5.443   7.889 -0.1629  0.7673  0.3258
 7525SOL     H148774   5.957   5.476   7.838  0.7693  2.7249  0.2007
 7525SOL     H248775   6.018   5.348   7.891  0.1555  0.5142 -4.1965
 7526SOL    OH248776   3.288   2.321   7.677  0.4696  0.1007  0.0945
 7526SOL     H148777   3.329   2.238   7.701  1.6817  0.7589  0.3387
 7526SOL     H248778   3.306   2.331   7.584 -1.9761 -1.1825 -0.5539
 7527SOL    OH248779   0.139   6.398   8.081 -0.1906  0.2168 -0.0675
 7527SOL     H148780   0.151   6.480   8.130 -2.7670 -1.5202  3.6793
 7527SOL     H248781   0.047   6.376   8.093 -0.0714 -2.1281 -2.9089
 7528SOL    OH248782   2.168   4.135   7.266 -0.3402  0.1628 -0.9008
 7528SOL     H148783   2.140   4.207   7.323 -0.6314  0.0579 -0.9112
 7528SOL     H248784   2.262   4.149   7.255 -0.7014  1.5317 -2.3047
 7529SOL    OH248785   5.151   5.129   6.648  0.0583  0.4850  0.0314
 7529SOL     H148786   5.246   5.144   6.640  0.3709 -0.8708  1.0178
 7529SOL     H248787   5.144   5.044   6.690 -1.6335 -0.2228 -1.5972
 7530SOL    OH248788   0.276   6.071   6.840  0.2878 -0.5193  0.4235
 7530SOL     H148789   0.325   6.129   6.898  1.2038 -0.9371  0.0702
 7530SOL     H248790   0.338   6.046   6.772 -1.0289  0.7050 -1.2704
 7531SOL    OH248791   2.716   0.480   6.173 -0.1663 -0.0286  0.1138
 7531SOL     H148792   2.717   0.406   6.234  0.7383 -0.0597  0.0709
 7531SOL     H248793   2.698   0.441   6.088  0.6442 -0.2503  0.0377
 7532SOL    OH248794   0.835   3.197   6.029 -0.1905 -0.3220 -0.3061
 7532SOL     H148795   0.881   3.223   5.949 -1.9059 -0.9683 -1.5410
 7532SOL     H248796   0.769   3.134   6.000 -0.1149 -1.4214  1.7853
 7533SOL    OH248797   5.300   4.509   7.354  0.1946 -0.1328  0.3060
 7533SOL     H148798   5.226   4.570   7.357  0.6630  0.4466  0.2173
 7533SOL     H248799   5.377   4.566   7.357  0.6705 -0.5421 -3.0853
 7534SOL    OH248800   6.999   2.242   7.060  0.0776 -0.2885 -0.5050
 7534SOL     H148801   6.909   2.213   7.047 -0.3059  1.2261 -1.4002
 7534SOL     H248802   7.002   2.328   7.018  1.5160  0.3774  0.9248
 7535SOL    OH248803   0.739   6.299   7.088  0.0846  0.2653  0.5372
 7535SOL     H148804   0.829   6.279   7.064 -0.5205 -1.6453 -0.2827
 7535SOL     H248805   0.704   6.346   7.012  0.4608  1.2834  0.9817
 7536SOL    OH248806   7.896   7.243   6.830 -0.9172 -0.1325 -0.4346
 7536SOL     H148807   7.962   7.287   6.883 -1.1309 -1.1329  0.6846
 7536SOL     H248808   7.913   7.149   6.844 -2.9381 -0.4108  0.3639
 7537SOL    OH248809   7.806   5.769   6.502 -0.2423  0.1888 -0.8601
 7537SOL     H148810   7.794   5.778   6.407  0.3434 -1.6221 -1.1411
 7537SOL     H248811   7.901   5.774   6.515 -0.4667  2.9274 -0.0500
 7538SOL    OH248812   3.291   0.541   0.982  0.1665 -0.0904 -0.0596
 7538SOL     H148813   3.257   0.452   0.993 -0.9627  0.3462  0.1226
 7538SOL     H248814   3.305   0.572   1.071 -1.5098  0.6668 -0.0311
 7539SOL    OH248815   3.558   5.724   8.038  0.4318 -0.1831  0.7181
 7539SOL     H148816   3.643   5.766   8.052  0.6584 -0.1248 -0.7608
 7539SOL     H248817   3.512   5.782   7.978  0.3973 -1.5623 -0.6106
 7540SOL    OH248818   6.390   1.174   7.964 -0.4925 -0.6505  0.4219
 7540SOL     H148819   6.366   1.151   8.054 -1.6074 -0.5779  0.1614
 7540SOL     H248820   6.366   1.097   7.912  1.0345 -1.0597  0.3117
 7541SOL    OH248821   3.381   5.848   6.576  0.1291 -0.0444 -0.2889
 7541SOL     H148822   3.324   5.776   6.603  1.1223  0.1371  2.4185
 7541SOL     H248823   3.325   5.925   6.579 -0.0208 -0.1736  0.3017
 7542SOL    OH248824   0.483   4.563   0.362  0.1584 -0.5612  0.1969
 7542SOL     H148825   0.489   4.561   0.458 -0.4250 -0.6190  0.2383
 7542SOL     H248826   0.559   4.613   0.334  0.9459 -1.4953  0.6325
 7543SOL    OH248827   5.334   6.496   8.246 -0.0779 -0.4826 -0.6518
 7543SOL     H148828   5.346   6.577   8.197  0.2251 -0.1873 -0.0932
 7543SOL     H248829   5.242   6.496   8.270  0.4689  0.9714  1.5657
 7544SOL    OH248830   5.336   7.719   7.031  0.3128  0.9478 -0.0057
 7544SOL     H148831   5.299   7.760   7.109  1.0587  2.1689 -0.2977
 7544SOL     H248832   5.397   7.654   7.065 -1.5615 -0.6182  0.4736
 7545SOL    OH248833   6.303   2.119   7.103 -0.6392 -0.2619 -0.1583
 7545SOL     H148834   6.303   2.030   7.067  0.2630  0.0367 -0.9342
 7545SOL     H248835   6.383   2.158   7.067 -1.5992  1.2203 -0.7142
 7546SOL    OH248836   6.593   5.685   7.136  0.5557  0.0857  0.5710
 7546SOL     H148837   6.689   5.679   7.143  0.7618  1.9697 -0.3465
 7546SOL     H248838   6.569   5.616   7.075  1.4062  0.0334  0.2918
 7547SOL    OH248839   2.295   3.522   1.865 -0.2319  0.7069  0.0561
 7547SOL     H148840   2.372   3.578   1.875  0.0557  0.1511  1.0829
 7547SOL     H248841   2.238   3.569   1.804  1.6559  0.3199 -2.0847
 7548SOL    OH248842   0.375   1.633   1.913  0.9824 -0.0375 -0.4069
 7548SOL     H148843   0.356   1.596   1.827  0.6062  1.8912 -1.1712
 7548SOL     H248844   0.467   1.658   1.909  1.6298 -2.1178  0.5957
 7549SOL    OH248845   7.829   3.626   0.629  0.1600 -0.0744 -0.0101
 7549SOL     H148846   7.812   3.534   0.647  2.2162 -0.5235 -0.2755
 7549SOL     H248847   7.894   3.652   0.694 -0.6570  1.2984  0.2869
 7550SOL    OH248848   4.779   6.936   1.978  0.4603  0.6344 -0.7190
 7550SOL     H148849   4.823   7.017   1.951  1.5926 -0.2263 -1.5372
 7550SOL     H248850   4.772   6.885   1.897  2.4253 -1.3071  0.2805
 7551SOL    OH248851   0.993   5.266   0.565  0.6263 -0.0361 -0.1666
 7551SOL     H148852   1.079   5.303   0.545  0.6877 -0.5664 -0.9040
 7551SOL     H248853   0.934   5.307   0.502  0.5970 -0.7595 -0.6190
 7552SOL    OH248854   4.472   7.261   7.815  0.0004 -0.0300 -0.3455
 7552SOL     H148855   4.539   7.228   7.875 -0.5229 -0.9195 -0.2520
 7552SOL     H248856   4.394   7.272   7.870 -0.5154 -0.9652 -0.8885
 7553SOL    OH248857   6.365   0.976   1.771  0.2107  0.5991 -0.0448
 7553SOL     H148858   6.307   0.989   1.846 -0.3782  1.9873 -0.7401
 7553SOL     H248859   6.341   0.889   1.738 -2.3113  1.6552 -1.0503
 7554SOL    OH248860   1.822   3.308   0.901 -0.9464 -0.6355 -0.3543
 7554SOL     H148861   1.784   3.395   0.887  0.0528 -0.1122  0.1365
 7554SOL     H248862   1.869   3.289   0.820  1.3402  0.5917  0.6384
 7555SOL    OH248863   5.171   2.418   0.980  0.2586 -0.0631 -0.7250
 7555SOL     H148864   5.079   2.413   0.952  0.0729 -0.5672 -0.0194
 7555SOL     H248865   5.182   2.345   1.041  1.1283  0.0015 -0.8010
 7556SOL    OH248866   0.963   7.718   0.683 -0.8637 -0.0407 -0.0264
 7556SOL     H148867   0.983   7.670   0.603  0.1037 -1.0227  0.8030
 7556SOL     H248868   1.032   7.785   0.689 -0.2670 -0.6952  0.5722
 7557SOL    OH248869   0.156   7.961   7.119  0.1668  0.1885  0.4045
 7557SOL     H148870   0.125   7.874   7.095  1.0187  0.1765 -0.7074
 7557SOL     H248871   0.087   7.997   7.173  0.2433 -1.5524  1.6935
 7558SOL    OH248872   2.208   1.029   7.832 -0.4888  0.3054  0.0168
 7558SOL     H148873   2.127   0.981   7.852  0.0661 -0.7201 -0.1844
 7558SOL     H248874   2.251   0.977   7.765  0.0904  1.1348 -0.2599
 7559SOL    OH248875   6.870   7.769   2.619 -0.1170 -0.4867  0.1133
 7559SOL     H148876   6.831   7.851   2.590 -0.7849 -0.5601  0.7696
 7559SOL     H248877   6.819   7.702   2.574 -0.8567 -0.5880  1.0750
 7560SOL    OH248878   0.551   3.363   6.326  0.3708 -0.0822  0.0476
 7560SOL     H148879   0.544   3.284   6.272  2.2464 -0.4826  0.3631
 7560SOL     H248880   0.490   3.347   6.398 -0.1650 -0.7078 -0.5318
 7561SOL    OH248881   6.674   7.843   0.870  0.1243  0.0548 -0.5631
 7561SOL     H148882   6.759   7.879   0.845  0.8060 -1.4378 -0.4147
 7561SOL     H248883   6.682   7.825   0.963  0.7255 -2.9968 -1.1671
 7562SOL    OH248884   4.562   6.473   7.868 -0.9280 -0.0994  0.4057
 7562SOL     H148885   4.473   6.463   7.836  0.0058 -0.5271 -2.2040
 7562SOL     H248886   4.571   6.566   7.887 -0.4758  0.8418 -4.0075
 7563SOL    OH248887   4.765   5.519   1.628  0.3811  0.0136 -0.1696
 7563SOL     H148888   4.744   5.496   1.538 -1.2712 -1.6167  0.5937
 7563SOL     H248889   4.810   5.442   1.662  0.2631  0.2921  0.6324
 7564SOL    OH248890   0.079   1.211   1.251 -0.9197 -0.4124 -0.1732
 7564SOL     H148891   0.066   1.279   1.186  0.0756 -0.5614 -0.5303
 7564SOL     H248892   0.001   1.216   1.307 -0.5233  1.4694  0.2196
 7565SOL    OH248893   1.258   0.867   1.393 -0.2774  0.3409 -0.2242
 7565SOL     H148894   1.347   0.901   1.389  0.5004 -1.5689  0.1241
 7565SOL     H248895   1.203   0.940   1.365  1.5148  1.0821 -1.9301
 7566SOL    OH248896   5.535   4.632   7.395  0.0551 -0.1472  0.1997
 7566SOL     H148897   5.616   4.590   7.424 -0.3235 -0.3584  0.9585
 7566SOL     H248898   5.543   4.723   7.424  0.5453  0.1313 -0.7853
 7567SOL    OH248899   1.557   3.724   1.146  0.3198  0.4557  0.0442
 7567SOL     H148900   1.609   3.782   1.201  1.6619  1.8220 -2.5817
 7567SOL     H248901   1.570   3.637   1.183 -0.3188  1.5729  2.9853
 7568SOL    OH248902   6.856   1.730   1.121  0.3204  0.3644 -0.4511
 7568SOL     H148903   6.792   1.801   1.130 -0.3577 -0.2623 -0.2830
 7568SOL     H248904   6.839   1.673   1.196  0.9878  0.1198 -0.4848
 7569SOL    OH248905   6.642   7.180   0.553  0.2076 -0.4232 -0.0539
 7569SOL     H148906   6.633   7.233   0.632 -0.8987  0.0822 -0.5157
 7569SOL     H248907   6.709   7.115   0.576 -0.6501 -0.7694  1.5521
 7570SOL    OH248908   6.277   5.545   0.971 -0.4541 -0.4490 -0.1552
 7570SOL     H148909   6.213   5.578   0.909 -2.1276 -1.4664  1.0040
 7570SOL     H248910   6.290   5.453   0.946 -0.2126 -0.5204  0.2205
 7571SOL    OH248911   5.832   6.530   7.805 -0.0247 -0.1873 -0.2488
 7571SOL     H148912   5.855   6.469   7.875 -0.4838  0.7731  0.7745
 7571SOL     H248913   5.825   6.476   7.726 -0.1367 -1.3948  0.5724
 7572SOL    OH248914   6.103   6.331   7.311  0.2873  0.5959 -0.2094
 7572SOL     H148915   6.008   6.339   7.319  0.2130  0.6605 -1.0531
 7572SOL     H248916   6.121   6.238   7.322  0.1555  0.6300  0.2742
 7573SOL    OH248917   5.160   3.520   7.380  0.8167 -0.2066  0.3228
 7573SOL     H148918   5.100   3.587   7.347  0.7150 -0.0867  0.7413
 7573SOL     H248919   5.242   3.536   7.333  0.6624 -0.0691  0.0964
 7574SOL    OH248920   5.257   1.802   2.169  0.5668 -0.4003 -0.2490
 7574SOL     H148921   5.164   1.779   2.166 -0.1868  2.6330 -1.6163
 7574SOL     H248922   5.297   1.747   2.101 -0.2259 -1.6413  0.2733
 7575SOL    OH248923   4.377   6.643   1.313 -0.2454 -0.3686 -0.2817
 7575SOL     H148924   4.376   6.668   1.405  0.2559 -0.1035 -0.3452
 7575SOL     H248925   4.390   6.725   1.265  0.5135 -0.6324 -0.5319
 7576SOL    OH248926   6.742   7.800   6.631 -0.1235  0.0100  0.3890
 7576SOL     H148927   6.818   7.847   6.598 -0.3557  0.0667 -0.0720
 7576SOL     H248928   6.778   7.730   6.685  0.2825 -0.4343 -0.4501
 7577SOL    OH248929   6.210   2.796   0.344  0.2559  0.1846 -0.1844
 7577SOL     H148930   6.269   2.727   0.375 -1.0048 -0.4782  0.8076
 7577SOL     H248931   6.213   2.789   0.249  1.2419 -0.3001 -0.1175
 7578SOL    OH248932   0.140   7.573   0.832 -0.1721 -0.1215 -0.1318
 7578SOL     H148933   0.100   7.547   0.915 -0.2032 -0.0547 -0.1259
 7578SOL     H248934   0.192   7.496   0.806 -0.8923 -0.4835 -0.5088
 7579SOL    OH248935   6.269   0.945   8.227 -0.0949 -0.1211  0.2926
 7579SOL     H148936   6.229   0.932   8.312  1.5985  1.1953  1.3284
 7579SOL     H248937   6.311   1.031   8.233  0.5369 -0.2618 -1.6703
 7580SOL    OH248938   1.027   5.161   7.316  0.3434 -0.0998 -0.2351
 7580SOL     H148939   1.100   5.199   7.268  1.0312 -1.2455 -0.1044
 7580SOL     H248940   0.950   5.209   7.285  1.0080  0.3730 -1.1585
 7581SOL    OH248941   1.006   1.577   6.815  0.0711  0.6654  0.1585
 7581SOL     H148942   0.981   1.581   6.908  0.7272  1.3725  0.3044
 7581SOL     H248943   1.101   1.573   6.815  0.1946  2.9088 -0.5413
 7582SOL    OH248944   2.590   6.592   7.212 -0.1524 -0.2010 -0.9471
 7582SOL     H148945   2.610   6.559   7.124 -0.5024 -0.1879 -1.0333
 7582SOL     H248946   2.600   6.687   7.204 -1.2103 -0.1158 -1.2402
 7583SOL    OH248947   6.075   6.175   7.624  0.1469 -0.1732  0.2414
 7583SOL     H148948   6.068   6.125   7.544  1.3477  0.7773 -0.4900
 7583SOL     H248949   5.995   6.156   7.673  0.0305 -1.7998 -0.5705
 7584SOL    OH248950   3.889   5.184   7.498  0.2261 -0.4485 -0.0036
 7584SOL     H148951   3.864   5.206   7.408 -0.7009 -1.0810  0.0938
 7584SOL     H248952   3.869   5.091   7.506  0.8746 -0.5357  0.6758
 7585SOL    OH248953   6.975   1.493   7.897  0.4073 -0.6167  1.2908
 7585SOL     H148954   6.920   1.416   7.912 -0.1789 -0.9774 -2.3279
 7585SOL     H248955   7.063   1.457   7.885 -0.3232 -1.0834 -3.2536
 7586SOL    OH248956   6.225   3.917   2.104 -0.1304  0.0255 -0.6223
 7586SOL     H148957   6.130   3.930   2.110  0.0089  0.5186  0.7974
 7586SOL     H248958   6.254   3.981   2.039 -0.7857 -0.2280 -1.1705
 7587SOL    OH248959   7.510   6.823   7.168  0.5987  0.0444  0.0189
 7587SOL     H148960   7.569   6.783   7.232 -1.4815  0.1379  2.0495
 7587SOL     H248961   7.514   6.916   7.186 -0.1559  0.0527  0.1553
 7588SOL    OH248962   3.470   6.295   6.260 -0.4841 -0.5377  0.4258
 7588SOL     H148963   3.448   6.211   6.221 -1.2857 -1.0507  1.9376
 7588SOL     H248964   3.500   6.349   6.186 -1.2507 -1.7038 -0.7595
 7589SOL    OH248965   1.627   0.962   6.813 -0.2737 -0.1449 -0.0054
 7589SOL     H148966   1.537   0.963   6.846 -0.8342  0.7115 -1.5150
 7589SOL     H248967   1.650   0.869   6.809 -0.9316 -0.3480  0.7966
 7590SOL    OH248968   6.016   0.349   0.327 -0.5379 -0.1513  0.0490
 7590SOL     H148969   6.003   0.437   0.293  1.2091 -0.4371 -1.4761
 7590SOL     H248970   5.981   0.292   0.259 -2.0632 -0.6405  1.2265
 7591SOL    OH248971   5.032   1.689   2.087 -0.7257  0.3430 -0.2952
 7591SOL     H148972   4.949   1.644   2.074  0.5341 -1.9942 -0.6605
 7591SOL     H248973   5.095   1.637   2.037  0.9562  2.0723 -0.0357
 7592SOL    OH248974   0.252   5.919   1.072  0.0791  0.1911 -0.5761
 7592SOL     H148975   0.261   5.835   1.118 -1.7500 -0.6483 -1.6672
 7592SOL     H248976   0.157   5.934   1.069  0.2081  0.7116 -3.1411
 7593SOL    OH248977   1.581   0.546   2.225 -0.1178 -0.2739 -0.1863
 7593SOL     H148978   1.501   0.593   2.248 -0.1069 -0.5128  0.3466
 7593SOL     H248979   1.551   0.460   2.196 -0.0988 -0.1308 -0.6361
 7594SOL    OH248980   6.875   7.591   6.777  0.3308 -0.2161 -0.1426
 7594SOL     H148981   6.961   7.595   6.735  0.5004 -1.3623  0.0620
 7594SOL     H248982   6.859   7.497   6.788 -0.4544  0.0260  0.8286
 7595SOL    OH248983   2.981   7.496   8.067 -0.0234  0.2991  0.3254
 7595SOL     H148984   3.005   7.448   7.988  0.1908  0.3258  0.3738
 7595SOL     H248985   2.889   7.519   8.055 -0.2632 -0.5395  0.5140
 7596SOL    OH248986   3.748   7.775   2.133  0.5048  0.1049 -0.5345
 7596SOL     H148987   3.808   7.835   2.089  1.9409 -0.9068  0.0073
 7596SOL     H248988   3.804   7.722   2.189 -0.8731 -1.0225 -0.1999
 7597SOL    OH248989   0.480   6.821   2.213 -0.2073  0.0829 -0.0008
 7597SOL     H148990   0.547   6.833   2.146  0.1792  1.2580  0.5732
 7597SOL     H248991   0.483   6.902   2.264 -0.5620 -0.7543  1.3744
 7598SOL    OH248992   3.307   1.934   6.063  0.9097  0.1960 -0.5736
 7598SOL     H148993   3.254   1.859   6.092 -0.5635  0.8027 -1.6351
 7598SOL     H248994   3.315   1.922   5.968 -0.2582  1.9329 -0.9219
 7599SOL    OH248995   2.190   4.963   1.884  0.5137  0.1833  0.1613
 7599SOL     H148996   2.239   4.982   1.804  1.1696 -1.7309  0.0814
 7599SOL     H248997   2.122   4.902   1.856 -0.3889  0.9127  0.7380
 7600SOL    OH248998   7.179   3.989   1.848 -0.1968 -0.2171  0.5523
 7600SOL     H148999   7.148   3.927   1.914 -0.2474 -0.1938  0.5510
 7600SOL     H249000   7.247   4.040   1.891 -1.1609  0.7005  1.0087
 7601SOL    OH249001   3.274   3.712   0.185  0.1183 -0.1614  0.6450
 7601SOL     H149002   3.258   3.702   0.279  0.5726  0.8147  0.8269
 7601SOL     H249003   3.212   3.779   0.156  0.0845 -0.3471  0.2774
 7602SOL    OH249004   1.666   0.184   6.608 -0.3023 -0.4485 -0.4449
 7602SOL     H149005   1.742   0.129   6.591  0.6901  1.2018 -1.4502
 7602SOL     H249006   1.687   0.231   6.689 -0.7709 -0.8626 -0.0758
 7603SOL    OH249007   5.502   1.829   0.287 -0.4155  0.4901  0.3969
 7603SOL     H149008   5.434   1.790   0.232  0.7187  1.8319 -2.0123
 7603SOL     H249009   5.564   1.759   0.302 -1.5529 -0.3293  1.3461
 7604SOL    OH249010   7.545   3.502   7.521 -0.0409  0.4569 -0.2954
 7604SOL     H149011   7.524   3.569   7.586 -0.4697  1.0320 -1.0063
 7604SOL     H249012   7.573   3.426   7.572 -0.7244  0.7769  0.5668
 7605SOL    OH249013   5.435   6.483   0.224  0.1454 -0.1597  0.2741
 7605SOL     H149014   5.522   6.458   0.193  0.1101 -0.4242  0.3897
 7605SOL     H249015   5.380   6.483   0.145  0.8181  2.5438 -0.2482
 7606SOL    OH249016   7.095   6.377   7.313  0.1007  0.0272 -0.5557
 7606SOL     H149017   7.174   6.431   7.308 -0.4143  0.7510 -0.9223
 7606SOL     H249018   7.061   6.375   7.224 -0.4621 -0.0167 -0.3458
 7607SOL    OH249019   1.606   6.375   1.474  0.2652  0.1896 -0.2595
 7607SOL     H149020   1.532   6.344   1.423  0.2751 -1.3915  0.6309
 7607SOL     H249021   1.676   6.312   1.455  0.6674  0.3514  0.6590
 7608SOL    OH249022   3.960   6.046   5.984  0.4311 -1.4680  0.0505
 7608SOL     H149023   4.013   5.969   6.002  1.0853 -1.7913 -2.9627
 7608SOL     H249024   3.877   6.012   5.951  0.1712 -0.8958  0.0943
 7609SOL    OH249025   6.258   3.200   8.200  0.1218  0.0220 -0.4522
 7609SOL     H149026   6.181   3.163   8.157  0.0555 -0.9266  0.4750
 7609SOL     H249027   6.330   3.182   8.140 -0.2789  0.3922 -1.0502
 7610SOL    OH249028   3.351   1.922   5.432  0.1683  0.4761  0.8421
 7610SOL     H149029   3.405   1.874   5.369 -0.0795  0.6368  0.5041
 7610SOL     H249030   3.264   1.881   5.425 -0.0536  0.9921  0.5304
 7611SOL    OH249031   6.174   4.196   0.998 -0.1008 -0.8721  0.6252
 7611SOL     H149032   6.093   4.245   0.982  0.1137 -0.9257 -0.6576
 7611SOL     H249033   6.193   4.154   0.915  1.4350 -0.5953  0.8254
 7612SOL    OH249034   0.250   3.038   6.045 -0.2653 -0.2205  0.4671
 7612SOL     H149035   0.299   3.016   6.124  1.9919  0.9142 -0.5625
 7612SOL     H249036   0.251   3.133   6.041 -0.5427 -0.2590 -0.8162
 7613SOL    OH249037   3.289   1.422   1.631  0.0219  0.1669 -0.2352
 7613SOL     H149038   3.205   1.376   1.622 -0.4692  0.9496  0.1788
 7613SOL     H249039   3.311   1.451   1.542 -0.6783  0.8505 -0.1936
 7614SOL    OH249040   0.444   6.852   5.681 -0.1762 -0.1627  0.3303
 7614SOL     H149041   0.466   6.873   5.771 -0.3869  0.5268  0.2207
 7614SOL     H249042   0.490   6.770   5.664  1.3800  0.6532  0.4790
 7615SOL    OH249043   2.115   5.099   6.887  0.0999  0.1231  0.6972
 7615SOL     H149044   2.118   5.182   6.934  0.0745  0.7848 -0.4468
 7615SOL     H249045   2.152   5.035   6.948 -0.4183  0.8693  1.7957
 7616SOL    OH249046   4.395   1.644   6.974  0.9319 -0.0325 -0.0372
 7616SOL     H149047   4.396   1.688   7.059  3.9089  0.1865 -0.1604
 7616SOL     H249048   4.487   1.637   6.949  0.1313 -0.6527 -2.9636
 7617SOL    OH249049   0.729   1.255   6.049  0.1146 -0.4107  0.1788
 7617SOL     H149050   0.795   1.201   6.007 -1.0717 -2.3202  0.6953
 7617SOL     H249051   0.769   1.284   6.130  0.0398 -2.2906  0.9118
 7618SOL    OH249052   0.423   1.556   8.150 -0.1474 -0.2592  0.3643
 7618SOL     H149053   0.461   1.528   8.067  1.0582 -1.5279  1.3320
 7618SOL     H249054   0.329   1.552   8.136  0.0570  0.3212 -1.2031
 7619SOL    OH249055   5.722   1.176   7.501  0.6747 -0.3267  0.5229
 7619SOL     H149056   5.656   1.180   7.430 -0.5198  0.9465  1.6743
 7619SOL     H249057   5.708   1.091   7.541 -0.7796  0.2114  1.2031
 7620SOL    OH249058   4.806   7.708   2.091  0.8984  0.0624 -0.2663
 7620SOL     H149059   4.715   7.717   2.121  0.5985 -1.1763 -0.7618
 7620SOL     H249060   4.856   7.763   2.150  0.1495 -1.3325  1.7118
 7621SOL    OH249061   6.080   3.011   0.216  0.1247 -0.0201 -0.3795
 7621SOL     H149062   6.035   2.927   0.206 -0.4095  0.2294 -0.0511
 7621SOL     H249063   6.173   2.988   0.220 -0.0250 -0.5982 -0.2179
 7622SOL    OH249064   3.290   2.576   7.765 -0.5517  0.1784  0.1058
 7622SOL     H149065   3.210   2.597   7.718  0.4005  0.7221 -1.3037
 7622SOL     H249066   3.314   2.488   7.735  0.8384  1.1039 -1.5491
 7623SOL    OH249067   0.082   4.911   5.706  0.1929  0.1377 -0.3346
 7623SOL     H149068   0.071   4.827   5.663  4.9851  0.0162 -1.6093
 7623SOL     H249069   0.062   4.894   5.798 -4.0863 -1.0461 -1.3841
 7624SOL    OH249070   4.178   0.373   7.206 -0.6179 -0.2103  0.0105
 7624SOL     H149071   4.197   0.325   7.126  1.9556  1.1067 -0.2360
 7624SOL     H249072   4.251   0.350   7.265 -0.1573  2.1806  0.4145
 7625SOL    OH249073   6.882   5.755   0.246 -0.3368 -0.0632 -0.0845
 7625SOL     H149074   6.971   5.742   0.216 -0.0341 -1.6627  1.4377
 7625SOL     H249075   6.889   5.759   0.341 -1.4984  3.0796 -0.0472
 7626SOL    OH249076   7.515   7.492   7.614 -0.3540 -0.4276 -0.0085
 7626SOL     H149077   7.555   7.554   7.676 -1.0356  0.1842 -0.1703
 7626SOL     H249078   7.436   7.537   7.584 -0.1171 -0.7859 -1.1936
 7627SOL    OH249079   1.646   3.631   2.549  0.1073  0.1688 -0.0453
 7627SOL     H149080   1.582   3.683   2.500 -0.2371  0.8170  1.0824
 7627SOL     H249081   1.594   3.559   2.586  0.4189 -0.4809 -0.8394
 7628SOL    OH249082   6.698   4.124   0.211 -0.6039  0.1706  0.1445
 7628SOL     H149083   6.646   4.204   0.203  0.0865  0.5473 -0.6278
 7628SOL     H249084   6.656   4.075   0.282 -1.8725  0.5701 -0.3218
 7629SOL    OH249085   0.517   4.201   6.875  0.3724  0.3802 -0.0317
 7629SOL     H149086   0.422   4.199   6.867  0.4700 -3.6163 -1.0623
 7629SOL     H249087   0.535   4.167   6.963  0.8602  0.5386 -0.0649
 7630SOL    OH249088   4.376   5.461   7.147 -0.0992 -0.2495  0.1354
 7630SOL     H149089   4.377   5.436   7.055 -1.1337 -1.2598  0.3956
 7630SOL     H249090   4.395   5.555   7.147 -1.2804  0.0001 -1.1868
 7631SOL    OH249091   4.009   2.549   0.885 -0.0235  0.1928  0.3556
 7631SOL     H149092   3.947   2.480   0.861 -0.4840  1.0451 -0.9009
 7631SOL     H249093   3.963   2.601   0.951  0.8111 -1.4610  2.2815
 7632SOL    OH249094   0.938   0.572   6.683 -0.1166 -0.5585  0.0255
 7632SOL     H149095   0.893   0.498   6.644 -0.9921 -0.5422  0.9723
 7632SOL     H249096   0.868   0.625   6.723  0.5292  0.5575 -0.2822
 7633SOL    OH249097   3.264   0.644   6.128  0.4921  0.3853 -0.4191
 7633SOL     H149098   3.282   0.738   6.133  0.3229  0.3788  0.5445
 7633SOL     H249099   3.228   0.623   6.214  1.0037 -0.6576 -0.4540
 7634SOL    OH249100   7.775   3.905   2.039  0.7038 -0.7967 -0.1132
 7634SOL     H149101   7.859   3.860   2.036  0.8487 -0.4730 -0.9751
 7634SOL     H249102   7.746   3.909   1.947  0.7796  1.0150 -0.0742
 7635SOL    OH249103   1.249   6.315   6.970  0.3496 -0.2251  0.1012
 7635SOL     H149104   1.250   6.270   6.885 -2.5667  0.2514 -0.2222
 7635SOL     H249105   1.269   6.406   6.948 -0.5933 -0.0665 -0.0864
 7636SOL    OH249106   1.120   1.145   0.841  0.8361 -0.3826  0.0192
 7636SOL     H149107   1.080   1.231   0.832  0.8548 -0.4620 -0.8062
 7636SOL     H249108   1.050   1.083   0.820  1.2739 -0.5324 -0.9944
 7637SOL    OH249109   2.140   5.396   7.014 -0.6612 -0.1434 -0.0807
 7637SOL     H149110   2.082   5.438   6.951 -0.6243  0.2622  0.1512
 7637SOL     H249111   2.197   5.467   7.045 -0.1792 -0.4937 -0.1569
 7638SOL    OH249112   2.009   1.406   0.062  0.1954 -0.1967  0.3289
 7638SOL     H149113   1.988   1.500   0.068 -1.6443 -0.5091 -0.8642
 7638SOL     H249114   2.047   1.396  -0.026 -0.6771 -0.7486  0.0048
 7639SOL    OH249115   7.267   4.132   2.647  0.0165 -0.1216 -0.7290
 7639SOL     H149116   7.277   4.227   2.646 -1.2086  0.0090 -1.2647
 7639SOL     H249117   7.349   4.100   2.684  0.3667  1.1505 -0.3697
 7640SOL    OH249118   1.240   6.156   0.820 -0.0172  0.1345 -0.0354
 7640SOL     H149119   1.281   6.079   0.782  1.1040 -0.7228  2.7951
 7640SOL     H249120   1.301   6.228   0.802  0.0160 -0.0715 -0.7330
 7641SOL    OH249121   7.213   5.310   6.831 -0.8008  0.0218 -0.2974
 7641SOL     H149122   7.283   5.245   6.835 -2.1641 -1.6653 -2.4502
 7641SOL     H249123   7.183   5.318   6.921  2.6919  1.4564  0.8189
 7642SOL    OH249124   2.227   1.075   1.248  0.6631  0.2771 -0.5140
 7642SOL     H149125   2.201   1.063   1.156 -1.2571 -1.2567  0.1875
 7642SOL     H249126   2.245   0.986   1.279  3.5182  0.9846  0.0053
 7643SOL    OH249127   3.404   3.640   0.795 -0.2635  0.0682 -0.0976
 7643SOL     H149128   3.404   3.595   0.710  1.9855 -1.9871  0.9298
 7643SOL     H249129   3.333   3.599   0.844  0.0582 -0.5206 -0.1143
 7644SOL    OH249130   5.245   5.121   1.721  0.2114 -0.0248  0.3943
 7644SOL     H149131   5.265   5.131   1.814  3.4575 -0.0359 -0.2266
 7644SOL     H249132   5.330   5.130   1.678 -1.2742  0.1671 -2.5896
 7645SOL    OH249133   0.580   2.404   1.471 -0.3018 -0.2188 -0.2768
 7645SOL     H149134   0.585   2.472   1.404  0.9478 -0.4356 -0.4083
 7645SOL     H249135   0.653   2.421   1.529 -2.5461  1.1751  2.2383
 7646SOL    OH249136   1.639   4.905   6.515  0.4169 -0.2247 -0.3347
 7646SOL     H149137   1.719   4.886   6.563  0.6506  0.8647 -0.2891
 7646SOL     H249138   1.636   5.000   6.508 -0.8018 -0.2561 -0.4616
 7647SOL    OH249139   0.065   1.105   6.723 -0.4392  0.2856 -1.1522
 7647SOL     H149140   0.054   1.200   6.727 -0.6084  0.2636 -1.1003
 7647SOL     H249141   0.156   1.093   6.695 -0.4710  0.4647 -1.3342
 7648SOL    OH249142   3.259   6.203   0.159 -0.4516  0.1848  0.4034
 7648SOL     H149143   3.351   6.230   0.150 -0.4869 -0.2203 -1.3163
 7648SOL     H249144   3.210   6.271   0.113 -0.7575 -1.2712 -1.4696
 7649SOL    OH249145   3.725   1.100   2.567 -0.0197 -0.2700 -0.3637
 7649SOL     H149146   3.651   1.152   2.598  0.0439 -0.8433  0.7845
 7649SOL     H249147   3.693   1.056   2.488 -1.3465 -1.5800  0.8877
 7650SOL    OH249148   3.787   2.731   1.615  0.4870 -0.3177  0.0599
 7650SOL     H149149   3.713   2.703   1.668  0.8490 -0.2987  0.5849
 7650SOL     H249150   3.752   2.798   1.557 -0.0586 -0.8090 -0.1795
 7651SOL    OH249151   4.248   4.251   7.306 -0.3338 -0.4734 -0.0177
 7651SOL     H149152   4.308   4.198   7.253  0.8389 -0.8753  1.6579
 7651SOL     H249153   4.173   4.267   7.249  0.8867 -0.9077 -1.7775
 7652SOL    OH249154   7.249   4.417   1.191 -0.3542 -0.6787  0.0162
 7652SOL     H149155   7.165   4.394   1.232 -0.0741 -0.8216  0.5213
 7652SOL     H249156   7.299   4.336   1.193 -0.3369 -0.6845 -0.6168
 7653SOL    OH249157   7.017   1.522   1.714 -0.4557 -0.6539  0.1314
 7653SOL     H149158   6.975   1.600   1.677  1.9542  0.1141 -1.0844
 7653SOL     H249159   7.074   1.555   1.783  0.5621 -1.3118 -0.3705
 7654SOL    OH249160   0.311   0.134   0.229 -0.0390 -0.2424 -0.2593
 7654SOL     H149161   0.239   0.104   0.173 -0.5333  0.6606 -0.1191
 7654SOL     H249162   0.368   0.058   0.238 -0.0689 -0.4471 -1.8052
 7655SOL    OH249163   2.248   3.348   6.783 -0.3348 -0.7127 -0.1624
 7655SOL     H149164   2.268   3.400   6.862  1.7088 -4.2673  1.7852
 7655SOL     H249165   2.330   3.347   6.734 -0.1176 -2.6320  0.2021
 7656SOL    OH249166   6.711   4.851   1.301  0.6612  0.4217  0.0266
 7656SOL     H149167   6.756   4.773   1.333 -1.5723 -0.5745  0.8246
 7656SOL     H249168   6.668   4.823   1.220  1.1035  1.2517 -0.5041
 7657SOL    OH249169   7.221   1.513   6.523  1.0268 -0.0511  0.8494
 7657SOL     H149170   7.180   1.599   6.539 -1.2727 -0.7947 -0.7509
 7657SOL     H249171   7.314   1.532   6.514  0.3589  2.5526 -1.2638
 7658SOL    OH249172   2.572   4.795   0.356  0.3163  0.0830  0.6563
 7658SOL     H149173   2.664   4.823   0.363  0.4112 -0.3025  1.0431
 7658SOL     H249174   2.562   4.766   0.266  0.2629  1.1973  0.3057
 7659SOL    OH249175   2.661   6.553   5.924  0.0360 -0.5317 -0.3430
 7659SOL     H149176   2.721   6.541   5.997  0.6811  0.7307 -0.6593
 7659SOL     H249177   2.579   6.514   5.955  0.1676  0.3831  1.2356
 7660SOL    OH249178   6.482   6.586   0.255  0.1371 -0.3347 -0.0601
 7660SOL     H149179   6.530   6.513   0.293 -0.8848 -0.0567  1.8026
 7660SOL     H249180   6.450   6.636   0.330  0.5421  1.8462 -1.2975
 7661SOL    OH249181   1.182   7.962   1.369 -0.0553  0.3638 -0.0306
 7661SOL     H149182   1.251   7.978   1.305  1.3646  1.2068  1.6609
 7661SOL     H249183   1.193   7.871   1.394  0.7443  0.6197  0.5674
 7662SOL    OH249184   4.774   1.203   0.098 -0.0340 -0.3121  0.3204
 7662SOL     H149185   4.761   1.260   0.174 -0.6151  0.8249 -0.6198
 7662SOL     H249186   4.792   1.263   0.026  3.4301 -1.5019  0.1110
 7663SOL    OH249187   4.466   1.983   6.461 -0.0059  0.0761 -0.1405
 7663SOL     H149188   4.540   2.042   6.452 -0.2649  0.6046  1.0777
 7663SOL     H249189   4.503   1.895   6.452  1.1201  0.2436  2.4764
 7664SOL    OH249190   3.392   3.832   1.676  0.0103 -0.3852  0.1391
 7664SOL     H149191   3.480   3.808   1.703 -0.4374 -1.5933  0.5604
 7664SOL     H249192   3.336   3.762   1.711 -1.0391  0.0533 -0.6308
 7665SOL    OH249193   0.751   4.277   6.518 -0.2848 -0.0390  0.1850
 7665SOL     H149194   0.765   4.314   6.605 -0.0586  0.7016 -0.1707
 7665SOL     H249195   0.727   4.185   6.535 -2.8840  0.7827  1.1565
 7666SOL    OH249196   1.096   3.518   7.754  0.0265 -0.0212  0.6425
 7666SOL     H149197   1.064   3.601   7.789  1.1725  0.5635  0.3463
 7666SOL     H249198   1.049   3.451   7.803 -1.0244  0.8008  0.7798
 7667SOL    OH249199   1.692   0.694   0.992  0.3856  0.2727  0.3870
 7667SOL     H149200   1.767   0.694   0.932 -0.2303  0.3488 -0.3996
 7667SOL     H249201   1.698   0.778   1.038  2.2079 -0.7794  2.1753
 7668SOL    OH249202   3.086   6.476   7.384 -0.1823  0.0562  0.1346
 7668SOL     H149203   3.102   6.566   7.411  1.3991 -0.2127  0.1779
 7668SOL     H249204   3.106   6.475   7.290  1.3756 -0.5747  0.4496
 7669SOL    OH249205   3.187   4.318   6.874  0.3554  0.2900  0.5280
 7669SOL     H149206   3.124   4.356   6.935 -0.8370 -1.5156  0.4482
 7669SOL     H249207   3.180   4.223   6.887  2.5074  0.0235 -0.0279
 7670SOL    OH249208   3.228   5.766   0.444 -0.0642 -0.1357 -0.0509
 7670SOL     H149209   3.165   5.820   0.397 -0.2087 -0.1131  0.1631
 7670SOL     H249210   3.218   5.793   0.536 -1.7456 -2.0713  0.3780
 7671SOL    OH249211   5.457   1.457   2.910  0.0104 -0.5873  0.0783
 7671SOL     H149212   5.532   1.475   2.967  0.0521 -0.0199 -0.1507
 7671SOL     H249213   5.447   1.537   2.858  0.6190 -1.4621 -1.4327
 7672SOL    OH249214   0.172   3.266   0.279  0.1878  0.1715 -0.0256
 7672SOL     H149215   0.109   3.303   0.341  1.4201 -0.1271  1.4242
 7672SOL     H249216   0.210   3.341   0.235 -0.4775  0.3978 -0.2288
 7673SOL    OH249217   2.145   6.625   7.339 -0.2739  0.3933  0.2831
 7673SOL     H149218   2.213   6.644   7.274 -0.6756  0.3496 -0.1572
 7673SOL     H249219   2.073   6.590   7.287 -0.2307 -0.5840  0.8718
 7674SOL    OH249220   6.054   1.034   8.071  0.5669 -0.6801  0.1433
 7674SOL     H149221   6.056   1.002   7.981  1.4215  0.8596 -0.4044
 7674SOL     H249222   6.132   0.997   8.112  2.0848  1.4711 -0.7703
 7675SOL    OH249223   5.103   1.043   1.905 -0.4742  0.4062 -0.2969
 7675SOL     H149224   5.121   1.038   1.811  0.2104 -0.5869 -0.1211
 7675SOL     H249225   5.023   0.991   1.917 -0.2893  0.1307 -0.2595
 7676SOL    OH249226   7.699   7.861   7.469  0.9515 -0.1259 -0.4354
 7676SOL     H149227   7.700   7.954   7.444  3.0428 -0.3420 -1.2611
 7676SOL     H249228   7.791   7.837   7.475  0.4708 -1.2731  3.2499
 7677SOL    OH249229   1.935   1.741   0.114  0.6047  0.1760 -0.4759
 7677SOL     H149230   1.951   1.815   0.055  0.7204  0.7476  0.2554
 7677SOL     H249231   1.840   1.736   0.120  0.5004 -1.8941 -3.1811
 7678SOL    OH249232   1.506   7.273   0.360 -0.1817 -0.0918 -0.5745
 7678SOL     H149233   1.598   7.297   0.351 -0.0314 -0.3699  0.2201
 7678SOL     H249234   1.481   7.240   0.273  0.6443 -0.6389 -0.6054
 7679SOL    OH249235   3.444   5.484   1.535  0.0673  0.1558  0.7496
 7679SOL     H149236   3.423   5.424   1.606 -0.3632 -0.0142  0.4771
 7679SOL     H249237   3.518   5.535   1.568  0.7477 -0.8594  0.7813
 7680SOL    OH249238   4.469   6.400   7.465  0.5404 -0.3003 -0.5009
 7680SOL     H149239   4.442   6.485   7.429  0.4379 -0.0185  0.2392
 7680SOL     H249240   4.388   6.350   7.473  0.6182 -0.5304 -1.0743
 7681SOL    OH249241   1.785   6.980   6.138 -1.1567  0.2303  1.0304
 7681SOL     H149242   1.697   6.999   6.104  0.0333  2.1720 -1.0643
 7681SOL     H249243   1.821   6.915   6.079 -0.4884  0.8065  0.8004
 7682SOL    OH249244   3.240   5.445   8.156 -0.5248  0.1674  0.0425
 7682SOL     H149245   3.174   5.468   8.090 -1.8577  0.1056  1.3242
 7682SOL     H249246   3.199   5.467   8.240  0.8217 -0.5238  0.8989
 7683SOL    OH249247   6.029   6.817   2.128 -0.0871 -0.1059  0.2186
 7683SOL     H149248   6.029   6.898   2.177  0.7746  0.9012 -1.3900
 7683SOL     H249249   6.121   6.791   2.124 -0.5233 -2.1149  2.2208
 7684SOL    OH249250   3.611   4.560   0.255 -0.0766 -0.0207  0.3616
 7684SOL     H149251   3.527   4.587   0.292  0.3653  1.0620  0.5754
 7684SOL     H249252   3.613   4.597   0.167  0.6166  0.8226  0.7280
 7685SOL    OH249253   4.985   5.925   7.345  0.1782 -0.5171  0.1442
 7685SOL     H149254   5.019   5.899   7.431  2.3743 -2.1979 -1.1703
 7685SOL     H249255   4.970   6.019   7.352  1.4723 -0.4219  1.9835
 7686SOL    OH249256   6.540   1.222   2.887  0.3737 -0.6934  0.2768
 7686SOL     H149257   6.479   1.173   2.942  1.5909 -1.3221  1.1124
 7686SOL     H249258   6.615   1.163   2.876 -0.3230 -1.0464 -3.0685
 7687SOL    OH249259   0.957   4.586   2.783  0.1435 -0.1001  0.1736
 7687SOL     H149260   0.869   4.551   2.769  0.4715 -0.9216  0.1449
 7687SOL     H249261   0.976   4.634   2.703  0.5311 -1.6568 -0.6934
 7688SOL    OH249262   0.182   4.285   7.810  0.2210 -0.5393  0.1688
 7688SOL     H149263   0.115   4.350   7.791 -0.2562 -0.7396  1.1425
 7688SOL     H249264   0.178   4.224   7.735 -0.4424 -0.3609  0.0554
 7689SOL    OH249265   0.765   7.051   2.427  0.0574  0.1012 -0.1375
 7689SOL     H149266   0.806   7.002   2.356  0.5623  0.2325  0.0588
 7689SOL     H249267   0.671   7.039   2.414  0.1355  0.5167 -1.1004
 7690SOL    OH249268   2.872   7.262   1.391  0.3421  0.1647  0.4793
 7690SOL     H149269   2.935   7.202   1.431  1.7423  1.2486 -0.0796
 7690SOL     H249270   2.902   7.271   1.300 -0.6322  0.6907  0.1984
 7691SOL    OH249271   5.927   0.921   7.371  0.4875 -0.1298 -0.1256
 7691SOL     H149272   5.993   0.854   7.352  1.0052 -0.1283  1.5870
 7691SOL     H249273   5.844   0.880   7.347  0.9622 -0.6980 -0.8271
 7692SOL    OH249274   3.706   3.426   0.680  0.4278 -0.2533  0.0298
 7692SOL     H149275   3.636   3.466   0.628  2.4672  0.7047 -2.1327
 7692SOL     H249276   3.717   3.484   0.755 -1.2371 -0.5402  0.5022
 7693SOL    OH249277   2.806   4.665   1.900  0.2782 -0.2547  0.1351
 7693SOL     H149278   2.842   4.748   1.869 -1.3283 -0.2084 -1.7055
 7693SOL     H249279   2.775   4.622   1.821 -0.6698 -1.7571  1.3082
 7694SOL    OH249280   6.827   4.985   2.556  0.0155 -0.5714  0.8011
 7694SOL     H149281   6.744   4.938   2.548  0.1454 -0.7344  0.4101
 7694SOL     H249282   6.856   4.968   2.645  0.2962 -1.6136  0.5059
 7695SOL    OH249283   6.078   1.522   0.418  0.1213 -0.4219 -0.2458
 7695SOL     H149284   6.074   1.616   0.398  0.6371 -0.1229  1.0304
 7695SOL     H249285   6.165   1.495   0.390  1.0251  0.1006  1.9459
 7696SOL    OH249286   7.161   3.320   0.187  0.5395 -0.1861 -0.5272
 7696SOL     H149287   7.171   3.413   0.170 -0.2177  0.1686  0.8462
 7696SOL     H249288   7.250   3.286   0.194  0.8214  0.6214 -0.1438
 7697SOL    OH249289   7.247   4.137   8.057  0.1558  0.4451 -0.0924
 7697SOL     H149290   7.180   4.101   7.999 -0.1507 -0.4248  0.7823
 7697SOL     H249291   7.301   4.192   8.000  1.3471 -2.2991 -1.7531
 7698SOL    OH249292   2.514   3.654   0.380  0.2434 -0.9643  0.1469
 7698SOL     H149293   2.473   3.573   0.350  0.2830 -1.6030  1.7774
 7698SOL     H249294   2.553   3.691   0.301 -0.7173 -1.9663 -0.8255
 7699SOL    OH249295   1.046   4.919   7.187  0.5800 -0.0307 -0.6319
 7699SOL     H149296   1.117   4.980   7.166 -0.5388  0.8973 -1.7904
 7699SOL     H249297   1.007   4.955   7.267  0.5649  0.1986 -0.7433
 7700SOL    OH249298   4.246   2.560   6.914 -0.1229  0.1020 -0.1579
 7700SOL     H149299   4.336   2.566   6.882 -0.4983 -0.1613 -1.2522
 7700SOL     H249300   4.207   2.645   6.892 -0.2181  0.1334  0.1227
 7701SOL    OH249301   5.398   0.370   7.320 -0.4897  0.1490 -0.5593
 7701SOL     H149302   5.459   0.333   7.384  0.1585  2.8013  0.4442
 7701SOL     H249303   5.433   0.342   7.235  1.1677  0.2002  0.0793
 7702SOL    OH249304   2.171   6.843   6.686 -0.0996  0.3759 -0.3512
 7702SOL     H149305   2.091   6.851   6.633  0.7842 -0.4299 -1.8435
 7702SOL     H249306   2.141   6.857   6.776 -2.3487 -2.2600 -0.6030
 7703SOL    OH249307   3.139   2.451   1.264  0.2360  0.0297 -0.4615
 7703SOL     H149308   3.152   2.462   1.358 -0.5200 -0.1599 -0.3325
 7703SOL     H249309   3.079   2.377   1.256  2.0310 -1.4100 -1.1801
 7704SOL    OH249310   0.166   3.245   7.679 -0.5968 -0.2435  0.0339
 7704SOL     H149311   0.142   3.274   7.767 -0.7994  0.3011 -0.1987
 7704SOL     H249312   0.157   3.150   7.681  2.6478 -0.5862  1.6140
 7705SOL    OH249313   5.648   7.788   0.550 -0.2026  0.0549 -0.5632
 7705SOL     H149314   5.620   7.699   0.530  1.6209 -0.6401 -0.0990
 7705SOL     H249315   5.570   7.830   0.588 -1.0443 -1.3538 -0.7275
 7706SOL    OH249316   1.380   2.740   6.732 -0.1512 -0.5194 -0.2154
 7706SOL     H149317   1.366   2.647   6.712  0.2569 -0.9180  1.3538
 7706SOL     H249318   1.474   2.748   6.745 -0.2284  0.0685 -0.0269
 7707SOL    OH249319   7.783   2.517   1.118 -0.2863  0.0699  0.0635
 7707SOL     H149320   7.829   2.567   1.051 -0.7289  2.1224  1.2254
 7707SOL     H249321   7.735   2.450   1.070  0.3771  0.7316 -1.5610
 7708SOL    OH249322   2.290   1.353   1.375  0.1073  0.0435 -0.8814
 7708SOL     H149323   2.233   1.401   1.314 -0.7377 -1.3025 -1.1646
 7708SOL     H249324   2.264   1.262   1.365  2.0545 -0.5489 -0.7200
 7709SOL    OH249325   0.776   2.762   0.887 -0.2330  0.1393 -0.3812
 7709SOL     H149326   0.843   2.738   0.823  1.2658  1.5140  0.6032
 7709SOL     H249327   0.720   2.824   0.840  0.1245  0.1773 -0.7688
 7710SOL    OH249328   4.345   7.292   1.379 -0.2368 -0.2911 -0.3345
 7710SOL     H149329   4.316   7.201   1.379 -2.1537  0.2956 -0.8718
 7710SOL     H249330   4.392   7.303   1.462  0.1723 -1.8145 -0.3641
 7711SOL    OH249331   4.751   4.132   7.596 -0.4280 -0.7346 -0.8240
 7711SOL     H149332   4.715   4.127   7.685 -0.0044 -0.0263 -0.6114
 7711SOL     H249333   4.697   4.071   7.545 -0.6301 -1.1943 -0.0709
 7712SOL    OH249334   5.487   6.817   6.183  0.5377  0.3859  0.5090
 7712SOL     H149335   5.517   6.819   6.274  0.6442 -0.7890  0.5019
 7712SOL     H249336   5.515   6.732   6.150 -0.5060  0.3457 -0.2876
 7713SOL    OH249337   1.563   4.844   1.266  0.1511  0.0824  0.2271
 7713SOL     H149338   1.640   4.856   1.210  0.8253  0.9150  1.3159
 7713SOL     H249339   1.536   4.933   1.288 -1.5367 -0.1811 -0.6742
 7714SOL    OH249340   7.237   7.029   0.715  0.3711 -0.1486  0.0342
 7714SOL     H149341   7.231   7.123   0.702 -0.7179 -0.3313 -0.7848
 7714SOL     H249342   7.263   6.993   0.630  2.4347 -0.4468  0.7483
 7715SOL    OH249343   2.333   5.662   1.514 -0.8320 -0.0304  0.4930
 7715SOL     H149344   2.368   5.735   1.464 -0.3391  1.1023  2.4249
 7715SOL     H249345   2.408   5.630   1.565 -1.2199 -1.4215  0.2175
 7716SOL    OH249346   7.574   6.109   0.801 -0.1835 -0.1189  0.0816
 7716SOL     H149347   7.578   6.111   0.897 -0.8316 -1.3704  0.1468
 7716SOL     H249348   7.482   6.129   0.781  0.4385  2.4551 -0.3815
 7717SOL    OH249349   7.083   3.888   0.698 -0.3743  0.4186 -0.2349
 7717SOL     H149350   7.161   3.905   0.751 -0.0291 -0.8050 -0.3324
 7717SOL     H249351   7.010   3.917   0.753 -0.0062 -0.6687  0.8501
 7718SOL    OH249352   4.500   4.117   0.618 -0.2046 -0.2844 -0.1213
 7718SOL     H149353   4.476   4.027   0.593 -1.3174  0.0157 -0.1709
 7718SOL     H249354   4.479   4.170   0.541  2.3106 -0.2399 -0.8121
 7719SOL    OH249355   4.267   5.863   1.108  0.2492 -0.0707  0.1315
 7719SOL     H149356   4.307   5.929   1.052  1.7888 -0.1238  1.1262
 7719SOL     H249357   4.251   5.907   1.191  0.9335 -0.8224  0.6769
 7720SOL    OH249358   5.250   3.961   2.604  0.2576 -0.2602 -0.1247
 7720SOL     H149359   5.192   4.030   2.571 -0.2025 -0.1178  0.9841
 7720SOL     H249360   5.319   4.008   2.650  1.9338 -0.3565 -2.4099
 7721SOL    OH249361   6.638   4.646   5.996 -0.4803  0.4297 -0.1437
 7721SOL     H149362   6.656   4.629   6.088 -0.5019 -1.2378 -0.4179
 7721SOL     H249363   6.544   4.628   5.986 -0.3381 -0.0747 -0.6202
 7722SOL    OH249364   4.848   6.919   8.042 -0.1643  0.0464 -0.6151
 7722SOL     H149365   4.789   6.929   8.117 -0.6459 -1.4776 -0.7852
 7722SOL     H249366   4.908   6.849   8.068  0.6663  0.5914 -1.0339
 7723SOL    OH249367   4.029   1.061   1.360 -0.2839  0.1477  0.4509
 7723SOL     H149368   4.057   1.039   1.449  1.3928  1.3361  0.2484
 7723SOL     H249369   4.063   1.150   1.346  2.3055 -1.2422 -2.5482
 7724SOL    OH249370   1.003   4.530   0.434  0.0106 -0.0398  0.5752
 7724SOL     H149371   0.963   4.449   0.465 -1.5218  0.8300  0.9190
 7724SOL     H249372   0.973   4.597   0.496  1.7479  0.6975  0.6573
 7725SOL    OH249373   4.795   7.894   8.077 -0.0497 -0.5193  0.2822
 7725SOL     H149374   4.871   7.860   8.123  0.0108 -1.8826 -0.7957
 7725SOL     H249375   4.828   7.970   8.029  0.7073 -1.3194 -0.4663
 7726SOL    OH249376   2.869   0.615   6.868  0.4599  0.8294 -0.3932
 7726SOL     H149377   2.787   0.594   6.913  1.3208  0.7920  1.1935
 7726SOL     H249378   2.869   0.710   6.862  1.7500  1.0803  2.5077
 7727SOL    OH249379   1.326   2.306   7.030  0.0864 -0.0653 -0.2315
 7727SOL     H149380   1.261   2.298   7.099 -0.9510 -0.3411 -1.2286
 7727SOL     H249381   1.410   2.304   7.076 -0.5964  0.2441  1.0551
 7728SOL    OH249382   1.972   4.960   0.885 -0.2398  0.3584  0.5223
 7728SOL     H149383   2.024   5.032   0.921 -2.2858  2.9109 -1.4344
 7728SOL     H249384   2.033   4.887   0.878  2.0110  2.0226  2.1184
 7729SOL    OH249385   7.241   0.150   6.628 -0.9310 -0.1436 -0.4487
 7729SOL     H149386   7.167   0.182   6.680 -0.1726  2.3256 -0.8116
 7729SOL     H249387   7.293   0.229   6.610  0.6372 -1.5029 -2.0194
 7730SOL    OH249388   3.184   3.414   6.033  0.5501 -0.4516 -0.0554
 7730SOL     H149389   3.179   3.331   6.080 -0.2494 -0.1831  0.3369
 7730SOL     H249390   3.103   3.417   5.982  0.8614 -0.1925 -0.5329
 7731SOL    OH249391   4.131   3.332   7.427 -0.2140 -0.1936  0.0469
 7731SOL     H149392   4.043   3.301   7.450  0.3036 -2.2885 -0.6762
 7731SOL     H249393   4.189   3.286   7.487  0.4573  0.6060  0.0142
 7732SOL    OH249394   2.126   7.173   7.229  0.0562  0.0448 -0.0706
 7732SOL     H149395   2.093   7.215   7.309 -0.7173  0.5927 -0.6686
 7732SOL     H249396   2.052   7.120   7.198  0.4868 -0.4698 -0.2149
 7733SOL    OH249397   2.649   2.144   7.105  0.0105  0.2340  0.5324
 7733SOL     H149398   2.673   2.092   7.181  2.0327 -1.4368 -1.1682
 7733SOL     H249399   2.559   2.120   7.086 -0.3258  0.2624  2.0562
 7734SOL    OH249400   2.433   6.234   6.436 -0.1308  0.6464 -0.5425
 7734SOL     H149401   2.492   6.264   6.367  1.0559 -1.2714 -0.4131
 7734SOL     H249402   2.382   6.164   6.395  0.2386 -0.1696  0.3716
 7735SOL    OH249403   4.444   1.471   0.915 -0.4642 -0.1469  0.2198
 7735SOL     H149404   4.416   1.381   0.931 -1.1775 -0.2066 -1.2678
 7735SOL     H249405   4.412   1.520   0.990 -0.9431 -0.9568  0.5519
 7736SOL    OH249406   2.963   1.649   1.995  0.1622  0.0535  0.2383
 7736SOL     H149407   2.913   1.603   2.062  0.7610 -0.2646  0.4682
 7736SOL     H249408   2.898   1.704   1.951  0.0140  1.2568  1.9369
 7737SOL    OH249409   7.499   2.964   7.282 -0.4685  0.1071  0.1885
 7737SOL     H149410   7.468   3.052   7.301  0.0693 -0.2994  3.0530
 7737SOL     H249411   7.490   2.916   7.364  3.3458 -1.3161 -0.1419
 7738SOL    OH249412   6.980   6.309   0.584 -0.3576 -0.3405  0.1295
 7738SOL     H149413   6.951   6.394   0.549  0.1793 -0.2124 -0.0018
 7738SOL     H249414   6.960   6.314   0.678  0.7672  0.3955  0.3427
 7739SOL    OH249415   1.224   7.372   7.346 -0.4841  0.3521 -0.0431
 7739SOL     H149416   1.202   7.314   7.419  0.1411  1.3525  0.9525
 7739SOL     H249417   1.151   7.361   7.285  0.0489 -2.1313 -0.2797
 7740SOL    OH249418   0.384   1.365   0.843 -0.9610 -0.8028 -0.4598
 7740SOL     H149419   0.479   1.356   0.845 -0.9843 -1.1048 -0.7256
 7740SOL     H249420   0.364   1.421   0.918 -0.6050 -1.0462 -0.1808
 7741SOL    OH249421   7.839   1.729   0.986 -0.1112  0.3932 -0.1275
 7741SOL     H149422   7.880   1.814   0.972  1.4974 -0.3200  0.1229
 7741SOL     H249423   7.749   1.750   1.012  0.4832  2.0293  0.6814
 7742SOL    OH249424   4.626   2.769   7.412  0.2445 -0.8993 -0.2600
 7742SOL     H149425   4.712   2.736   7.385  1.2915  1.9619 -0.6152
 7742SOL     H249426   4.620   2.746   7.505  0.4573 -2.9592 -0.7202
 7743SOL    OH249427   5.791   7.644   7.913  0.1534  0.2358 -0.5592
 7743SOL     H149428   5.791   7.737   7.891  0.9752  0.6932  1.3159
 7743SOL     H249429   5.705   7.629   7.953 -0.6450 -0.2088 -2.3778
 7744SOL    OH249430   5.031   5.320   7.000  0.5420  0.5696 -0.3332
 7744SOL     H149431   5.031   5.225   6.997 -0.0757  0.6046 -1.6225
 7744SOL     H249432   5.123   5.344   6.990  0.5211  0.1469 -1.5808
 7745SOL    OH249433   2.132   1.336   2.005 -0.5349 -0.0269 -0.5273
 7745SOL     H149434   2.178   1.260   1.969 -0.1986  0.6808 -1.6173
 7745SOL     H249435   2.199   1.381   2.057  0.0236  0.9763 -2.0734
 7746SOL    OH249436   3.593   3.011   6.485  0.5521 -0.1259  0.0805
 7746SOL     H149437   3.686   3.033   6.487  0.6362 -0.5554  0.8655
 7746SOL     H249438   3.564   3.040   6.398  1.0581  1.4221  0.4103
 7747SOL    OH249439   6.547   0.862   7.632  0.1590  0.0102  0.0378
 7747SOL     H149440   6.577   0.944   7.593  1.2637 -1.0494 -1.4121
 7747SOL     H249441   6.454   0.858   7.611  0.0424  1.0266  0.3555
 7748SOL    OH249442   0.500   5.128   2.637 -1.1780 -0.2601 -0.0659
 7748SOL     H149443   0.460   5.161   2.557 -0.9192 -2.0141 -0.9537
 7748SOL     H249444   0.426   5.101   2.692 -1.3567  0.9894  0.3203
 7749SOL    OH249445   7.590   5.233   6.551  0.1744  0.2224  0.1882
 7749SOL     H149446   7.653   5.197   6.614  0.7285 -0.8726 -0.9709
 7749SOL     H249447   7.639   5.240   6.469 -0.6513  1.2679 -0.2329
 7750SOL    OH249448   5.693   2.764   6.971 -0.5333 -0.1048 -0.3393
 7750SOL     H149449   5.605   2.797   6.987 -0.7622 -1.5484  1.5872
 7750SOL     H249450   5.743   2.793   7.047  0.4252 -0.1084 -0.9630
 7751SOL    OH249451   5.401   4.935   0.322  0.1774  0.4736 -0.1996
 7751SOL     H149452   5.365   4.901   0.403  0.4115 -1.6981 -0.9841
 7751SOL     H249453   5.342   4.903   0.254  0.5546  1.4184 -0.9899
 7752SOL    OH249454   5.570   3.559   2.338  0.5055 -0.0123  0.1493
 7752SOL     H149455   5.514   3.636   2.345 -1.0952 -1.0345 -1.1210
 7752SOL     H249456   5.549   3.508   2.416  0.8271  0.3396  0.4714
 7753SOL    OH249457   1.643   1.337   6.103 -0.1228 -0.0090  0.2262
 7753SOL     H149458   1.553   1.369   6.107  0.2687  0.9285  1.6914
 7753SOL     H249459   1.635   1.248   6.068 -1.7570 -0.5179  1.8027
 7754SOL    OH249460   6.609   0.750   1.417  0.7662  0.3788 -0.5075
 7754SOL     H149461   6.535   0.701   1.379  0.1677  0.7961  0.1062
 7754SOL     H249462   6.621   0.824   1.358 -0.5542  1.3559  0.4265
 7755SOL    OH249463   5.590   6.307   1.672  0.2538  0.1942  0.4118
 7755SOL     H149464   5.613   6.242   1.605  1.2512 -0.4650  1.3897
 7755SOL     H249465   5.535   6.260   1.733 -1.0788  0.9349 -0.1961
 7756SOL    OH249466   1.716   4.581   0.172  0.1499 -0.5449 -0.4830
 7756SOL     H149467   1.657   4.520   0.128 -0.9698 -0.7863  1.2919
 7756SOL     H249468   1.762   4.626   0.101 -1.6813 -0.8377 -1.8938
 7757SOL    OH249469   6.404   1.437   2.466  0.2567  0.5044 -0.3047
 7757SOL     H149470   6.377   1.345   2.472  1.3423  0.0882 -1.7548
 7757SOL     H249471   6.456   1.452   2.545  2.6230 -0.9898 -1.5404
 7758SOL    OH249472   7.210   2.215   1.774 -0.1481 -0.2877 -0.5048
 7758SOL     H149473   7.118   2.213   1.802  0.0204 -0.2218  0.0591
 7758SOL     H249474   7.258   2.176   1.847  0.2819 -0.2542 -0.7693
 7759SOL    OH249475   0.402   0.758   7.686 -0.4465 -0.1223 -0.1536
 7759SOL     H149476   0.480   0.812   7.700 -1.5316  1.2218  0.8051
 7759SOL     H249477   0.358   0.755   7.771 -1.0434 -1.5261 -0.4882
 7760SOL    OH249478   2.098   0.498   7.882 -0.4515  0.4115 -0.9269
 7760SOL     H149479   2.032   0.467   7.820  0.2865 -1.0026 -1.0285
 7760SOL     H249480   2.070   0.462   7.966  1.1107 -1.6753 -1.2637
 7761SOL    OH249481   3.070   4.353   7.105 -0.5045  0.1711  0.6164
 7761SOL     H149482   3.065   4.259   7.117 -0.6142 -0.0069 -0.7353
 7761SOL     H249483   2.980   4.384   7.117 -0.4762  0.1026  1.0138
 7762SOL    OH249484   7.883   7.504   1.323  0.0737  0.2426  0.3285
 7762SOL     H149485   7.893   7.434   1.387  1.5695 -1.3566 -1.6042
 7762SOL     H249486   7.794   7.492   1.289  0.1519 -0.4369  0.3518
 7763SOL    OH249487   6.933   4.139   2.281  0.2534  0.2576  0.1020
 7763SOL     H149488   7.022   4.170   2.264  0.3142  0.4422  0.7344
 7763SOL     H249489   6.934   4.114   2.373  0.8109 -3.6334 -0.8630
 7764SOL    OH249490   2.887   6.438   6.079 -0.1208  0.5662  0.1310
 7764SOL     H149491   2.936   6.516   6.106  3.1192 -0.2952 -2.9954
 7764SOL     H249492   2.931   6.366   6.123  0.2134 -0.0210 -1.1552
 7765SOL    OH249493   6.590   4.608   0.639  0.3960 -0.1184 -0.3260
 7765SOL     H149494   6.634   4.567   0.565  1.3020  0.7111 -0.2636
 7765SOL     H249495   6.646   4.682   0.662 -0.7367  0.6116  0.1380
 7766SOL    OH249496   4.989   1.884   7.022  0.1146 -0.3261  0.0540
 7766SOL     H149497   5.036   1.965   7.005  0.6464 -0.7025 -0.2960
 7766SOL     H249498   5.018   1.857   7.110  0.7165 -0.6643 -0.2439
 7767SOL    OH249499   5.876   1.609   6.534  0.1773  0.5123  0.6995
 7767SOL     H149500   5.843   1.589   6.622  0.2031 -1.5323  0.2697
 7767SOL     H249501   5.798   1.611   6.479  0.0366  2.8994  0.9252
 7768SOL    OH249502   4.863   1.054   7.489 -0.4087  0.1017 -0.8118
 7768SOL     H149503   4.861   0.968   7.531  0.8294 -0.7379 -2.4218
 7768SOL     H249504   4.847   1.116   7.560 -1.2405 -1.4504  0.3746
 7769SOL    OH249505   6.035   1.314   7.920 -0.1660 -0.2740  0.4564
 7769SOL     H149506   6.041   1.263   8.001  0.2886 -0.1088  0.5275
 7769SOL     H249507   6.084   1.262   7.856  0.5998  0.2374  0.6159
 7770SOL    OH249508   2.949   0.163   7.976 -0.2474  0.1980 -0.2568
 7770SOL     H149509   2.870   0.110   7.989 -1.7231  2.3776 -0.1756
 7770SOL     H249510   2.992   0.163   8.061 -2.3419  2.3867  0.8719
 7771SOL    OH249511   5.728   5.140   2.207  1.0417 -0.2680  0.1351
 7771SOL     H149512   5.677   5.077   2.156  0.0526  0.2687  0.4527
 7771SOL     H249513   5.814   5.099   2.217  1.2036 -0.4684 -1.7971
 7772SOL    OH249514   6.967   1.141   0.551 -0.1952  0.3216  0.0867
 7772SOL     H149515   7.017   1.152   0.632 -0.1482  2.0551 -0.1643
 7772SOL     H249516   7.012   1.070   0.505 -2.2497 -3.1408  3.1077
 7773SOL    OH249517   2.411   3.493   1.167  0.0279 -0.0751  1.0913
 7773SOL     H149518   2.406   3.533   1.080 -0.4389  1.1042  1.6477
 7773SOL     H249519   2.389   3.564   1.227  1.5041 -0.5618  2.2507
 7774SOL    OH249520   1.738   3.989   8.195  0.0672 -0.3878  0.0108
 7774SOL     H149521   1.804   3.983   8.264 -0.6496  0.9118  0.8167
 7774SOL     H249522   1.676   4.054   8.226 -1.5550 -1.5214 -0.7856
 7775SOL    OH249523   2.295   4.930   0.674 -0.4213 -0.4309 -0.8855
 7775SOL     H149524   2.379   4.896   0.705  0.2151  0.9981 -0.9919
 7775SOL     H249525   2.314   4.967   0.588 -0.7085  1.6349 -0.1102
 7776SOL    OH249526   5.090   2.367   1.338 -0.0207  0.1392 -0.0600
 7776SOL     H149527   5.064   2.347   1.248 -0.4754  1.1751 -0.1744
 7776SOL     H249528   5.022   2.428   1.369  0.8731  0.8540  0.5202
 7777SOL    OH249529   3.005   7.707   0.037 -0.2610  0.7741  0.4043
 7777SOL     H149530   3.043   7.659   0.111  0.2868  0.0489 -0.3393
 7777SOL     H249531   3.051   7.673  -0.040 -0.6296  1.7239 -0.2442
 7778SOL    OH249532  -0.028   7.327   6.581  0.0566 -0.0906 -0.0338
 7778SOL     H149533   0.060   7.358   6.562  0.0308 -0.7931 -1.3316
 7778SOL     H249534  -0.029   7.314   6.676  1.5665 -0.7396 -0.0952
 7779SOL    OH249535   2.820   0.458   6.533 -0.6381 -0.0828  0.5274
 7779SOL     H149536   2.729   0.450   6.561 -0.3350  0.3735  1.6825
 7779SOL     H249537   2.849   0.368   6.519 -1.5531 -0.1952 -0.8548
 7780SOL    OH249538   6.263   5.966   0.202  0.2806 -0.5800 -0.2257
 7780SOL     H149539   6.292   6.056   0.216 -0.9319 -0.3409  0.8633
 7780SOL     H249540   6.186   5.957   0.258 -0.4605 -1.8513 -1.4174
 7781SOL    OH249541   4.207   1.382   7.024 -0.2544 -0.4054 -0.3657
 7781SOL     H149542   4.284   1.353   6.975 -0.4013  0.2585 -0.9932
 7781SOL     H249543   4.137   1.389   6.958 -0.2059  1.4328 -0.2413
 7782SOL    OH249544   1.379   6.902   7.890  0.4072  0.1418 -0.1742
 7782SOL     H149545   1.437   6.847   7.837 -0.7676 -0.1109 -1.2178
 7782SOL     H249546   1.309   6.928   7.830 -1.3272 -0.7368  1.4340
 7783SOL    OH249547   7.824   0.479   5.786  0.8712 -0.0768 -0.6875
 7783SOL     H149548   7.864   0.537   5.851  2.0143 -1.6554  0.0610
 7783SOL     H249549   7.897   0.451   5.731  0.8395 -2.9206  0.6298
 7784SOL    OH249550   5.223   1.294   1.993 -0.4081  0.3900 -0.1836
 7784SOL     H149551   5.282   1.250   2.055 -1.3125  0.3952  0.6961
 7784SOL     H249552   5.172   1.222   1.954 -1.2374  0.5543  0.5707
 7785SOL    OH249553   0.734   0.465   0.225  0.0513 -0.0672 -0.2786
 7785SOL     H149554   0.815   0.436   0.267 -0.8552 -0.1178  1.4439
 7785SOL     H249555   0.667   0.404   0.256 -0.8346  0.5453 -0.9574
 7786SOL    OH249556   5.326   2.569   0.168 -0.0782 -0.3970 -0.4428
 7786SOL     H149557   5.384   2.562   0.244  0.1257  1.0289 -0.4474
 7786SOL     H249558   5.381   2.547   0.093 -0.0849 -1.0842 -0.2416
 7787SOL    OH249559   2.792   1.015   2.108 -0.2035  0.0236 -0.3396
 7787SOL     H149560   2.769   1.106   2.129  1.6012  0.6048 -0.7216
 7787SOL     H249561   2.782   1.010   2.013  0.4582  0.0762 -0.4191
 7788SOL    OH249562   5.342   2.899   0.288  0.1955 -1.1146  0.5884
 7788SOL     H149563   5.287   2.971   0.318 -0.1135 -1.2686  0.3901
 7788SOL     H249564   5.290   2.820   0.304 -1.1196 -1.0371 -2.7866
 7789SOL    OH249565   7.941   6.552   6.568 -0.6620 -0.2859  0.0699
 7789SOL     H149566   7.886   6.494   6.621 -0.2332  0.8270  1.7900
 7789SOL     H249567   7.945   6.634   6.619 -0.9357  1.1217 -2.1098
 7790SOL    OH249568   2.852   3.945   1.767  0.5910 -0.3050  0.1240
 7790SOL     H149569   2.791   3.997   1.715 -0.7244 -2.1228 -0.1726
 7790SOL     H249570   2.935   3.993   1.761 -0.1392  0.7899 -1.6522
 7791SOL    OH249571   3.417   7.805   5.989 -0.8543  0.0385 -0.0850
 7791SOL     H149572   3.401   7.734   5.927  0.8684  1.5997 -2.4594
 7791SOL     H249573   3.507   7.792   6.017  0.0169  2.0790 -1.7549
 7792SOL    OH249574   3.053   3.144   6.816 -0.1132  0.1055 -0.0805
 7792SOL     H149575   3.069   3.136   6.722 -1.4014  0.1982 -0.3268
 7792SOL     H249576   3.016   3.232   6.826 -1.2982 -0.4271  0.3139
 7793SOL    OH249577   3.731   7.470   7.227  0.0425  0.5377  0.0351
 7793SOL     H149578   3.821   7.437   7.229 -0.2597 -0.3355 -0.2084
 7793SOL     H249579   3.721   7.521   7.307 -1.0720 -4.2755  3.1439
 7794SOL    OH249580   3.519   1.022   0.912 -0.3119  0.9506 -0.8705
 7794SOL     H149581   3.543   0.929   0.904  2.1484  1.4802 -0.1784
 7794SOL     H249582   3.525   1.056   0.823 -1.0691  0.4891 -1.1024
 7795SOL    OH249583   2.233   2.345   0.613 -0.6752 -0.6804 -0.1721
 7795SOL     H149584   2.213   2.261   0.574  0.8460 -1.7698  1.3076
 7795SOL     H249585   2.156   2.366   0.667 -1.6476 -0.4187 -1.6289
 7796SOL    OH249586   7.041   1.514   2.234  0.0060  0.6789 -0.4511
 7796SOL     H149587   7.126   1.558   2.247 -0.6118  1.5441  0.6579
 7796SOL     H249588   7.056   1.425   2.264  1.2222  0.1309 -2.5447
 7797SOL    OH249589   1.198   4.320   0.935  0.3351 -0.5427  0.4019
 7797SOL     H149590   1.155   4.285   1.012 -1.1502 -1.6247 -0.8859
 7797SOL     H249591   1.230   4.243   0.888 -0.2673 -0.0116 -0.9093
 7798SOL    OH249592   3.387   5.123   0.746 -0.2768  0.1257 -0.0890
 7798SOL     H149593   3.310   5.177   0.728  0.4475  1.0261 -0.5112
 7798SOL     H249594   3.429   5.164   0.821  0.1629  0.0405 -0.2849
 7799SOL    OH249595   3.388   7.795   8.175  0.9074  0.0679 -0.1032
 7799SOL     H149596   3.312   7.741   8.153  1.0338 -0.4095  0.6451
 7799SOL     H249597   3.383   7.868   8.113 -0.0373 -0.0718 -0.2035
 7800SOL    OH249598   1.390   3.664   1.903  0.5834  0.5102 -0.3173
 7800SOL     H149599   1.324   3.656   1.972 -3.5283  3.9163 -3.5186
 7800SOL     H249600   1.427   3.751   1.915  2.0044 -0.0487 -0.6079
 7801SOL    OH249601   3.404   6.438   6.691 -0.0499 -0.3449  0.0318
 7801SOL     H149602   3.412   6.360   6.636 -1.8542 -0.4906 -0.0610
 7801SOL     H249603   3.441   6.412   6.775  0.5431 -0.8786 -0.3856
 7802SOL    OH249604   4.294   6.743   0.834  0.3069  0.2534 -0.1752
 7802SOL     H149605   4.360   6.684   0.800  0.3540  0.8539 -1.1366
 7802SOL     H249606   4.264   6.701   0.915  1.2954 -0.4036 -0.1409
 7803SOL    OH249607   0.494   3.043   6.788 -0.1969 -0.2019 -0.0770
 7803SOL     H149608   0.450   3.011   6.867 -1.5956  2.4671  0.2864
 7803SOL     H249609   0.556   3.108   6.820 -0.6574  0.7733 -1.1430
 7804SOL    OH249610   1.242   5.338   0.544 -0.0203 -0.0536  0.0236
 7804SOL     H149611   1.305   5.293   0.599  1.1370  1.3989 -0.0791
 7804SOL     H249612   1.271   5.321   0.455 -1.8135 -2.2901 -0.1941
 7805SOL    OH249613   4.860   4.702   6.456  0.0351 -0.0863  0.3020
 7805SOL     H149614   4.946   4.744   6.464 -0.4998  1.1149 -0.2022
 7805SOL     H249615   4.876   4.626   6.400  0.9302 -0.3596  0.9021
 7806SOL    OH249616   2.370   5.361   6.291  0.2586  0.0692  0.2152
 7806SOL     H149617   2.387   5.454   6.309 -1.1620  0.2213  0.8657
 7806SOL     H249618   2.397   5.316   6.371 -0.2664  0.0729  0.3991
 7807SOL    OH249619   1.122   0.984   2.574  0.1928 -0.2414  0.2479
 7807SOL     H149620   1.057   1.054   2.581  1.2570  0.6497  1.4193
 7807SOL     H249621   1.206   1.029   2.568  1.1895 -1.4050  4.1259
 7808SOL    OH249622   5.872   4.559   7.802 -0.1055 -0.0888  0.1303
 7808SOL     H149623   5.965   4.537   7.802 -0.1992 -0.4949 -0.5764
 7808SOL     H249624   5.830   4.489   7.851  0.1312  0.8986  1.8169
 7809SOL    OH249625   1.289   5.242   7.188  0.2070 -0.1015 -0.2586
 7809SOL     H149626   1.278   5.280   7.100  0.5862 -0.5368 -0.5001
 7809SOL     H249627   1.375   5.200   7.185 -0.2087 -0.9947 -0.0104
 7810SOL    OH249628   4.758   3.006   6.884  0.1031 -0.3728 -0.7041
 7810SOL     H149629   4.805   2.944   6.939 -0.8218 -0.1839  0.3149
 7810SOL     H249630   4.687   3.038   6.939 -0.3969  0.3744 -1.7633
 7811SOL    OH249631   6.620   4.776   2.997  0.2848  0.1689  0.1001
 7811SOL     H149632   6.618   4.681   2.985  0.5522  0.0057  1.3270
 7811SOL     H249633   6.536   4.807   2.962 -0.0842 -0.5859  0.3244
 7812SOL    OH249634   7.687   2.913   6.846 -0.6588  0.0364 -0.3123
 7812SOL     H149635   7.672   2.832   6.796 -2.3247  0.5874 -0.7385
 7812SOL     H249636   7.772   2.944   6.816 -1.2367 -0.1042 -2.1870
 7813SOL    OH249637   0.475   3.040   8.037 -0.0995  0.3107 -0.2408
 7813SOL     H149638   0.389   3.001   8.022  0.8429 -1.3172 -1.5051
 7813SOL     H249639   0.481   3.046   8.133 -1.6204  0.4981 -0.1324
 7814SOL    OH249640   7.077   6.688   1.845  0.4464 -0.1515 -0.4498
 7814SOL     H149641   7.169   6.675   1.823  1.3845  2.4840  1.7321
 7814SOL     H249642   7.045   6.750   1.779  0.4013 -0.5760 -0.8268
 7815SOL    OH249643   7.174   4.338   6.771  0.2851  0.7763  0.1507
 7815SOL     H149644   7.181   4.259   6.717 -0.3873  0.0635  1.1029
 7815SOL     H249645   7.153   4.407   6.708 -0.6597 -0.0846 -0.5049
 7816SOL    OH249646   5.228   3.861   6.719  0.8081  0.6072  0.0574
 7816SOL     H149647   5.176   3.837   6.642  0.4779  0.6571  0.2647
 7816SOL     H249648   5.251   3.952   6.705  0.2526  0.7852  0.2996
 7817SOL    OH249649   0.250   2.765   0.588 -0.4201 -0.0593 -0.7770
 7817SOL     H149650   0.270   2.831   0.521 -2.6527  2.4034  0.8635
 7817SOL     H249651   0.333   2.754   0.635 -0.6259  3.8111  0.7245
 7818SOL    OH249652   6.159   4.834   1.498 -0.2043 -0.0257 -0.1264
 7818SOL     H149653   6.203   4.796   1.422 -1.8150 -1.6204 -0.2974
 7818SOL     H249654   6.069   4.851   1.468 -0.7511 -0.3116  1.2962
 7819SOL    OH249655   6.344   7.242   7.551 -0.3125  0.2412 -0.0691
 7819SOL     H149656   6.407   7.258   7.480  0.0881 -2.6032 -0.3913
 7819SOL     H249657   6.263   7.282   7.520  0.0837 -0.2250 -1.7541
 7820SOL    OH249658   3.602   4.407   6.109  0.1095 -0.2521  0.5391
 7820SOL     H149659   3.631   4.429   6.021 -1.0342 -0.1932  0.1650
 7820SOL     H249660   3.627   4.482   6.162 -1.7849  1.0105 -0.2988
 7821SOL    OH249661   2.457   1.813   5.901 -0.2194  0.1422  0.1791
 7821SOL     H149662   2.461   1.904   5.873  0.7187 -0.1183 -0.5565
 7821SOL     H249663   2.368   1.786   5.879 -1.5444  1.7549  3.2651
 7822SOL    OH249664   2.128   7.736   8.134 -0.2164 -0.1366  1.1404
 7822SOL     H149665   2.104   7.761   8.223  0.4722  0.9180  1.0383
 7822SOL     H249666   2.203   7.678   8.144 -0.8706 -0.9687  1.2976
 7823SOL    OH249667   0.663   0.251   1.711 -0.2465 -0.1167  0.0298
 7823SOL     H149668   0.667   0.155   1.709  0.9351 -0.0989  1.0878
 7823SOL     H249669   0.705   0.275   1.794  2.0882  1.4648 -1.5754
 7824SOL    OH249670   5.627   0.369   7.511  0.2176 -0.0546 -0.1119
 7824SOL     H149671   5.667   0.411   7.587  0.1741  1.8363 -1.1043
 7824SOL     H249672   5.701   0.342   7.457  0.2356 -0.5404  0.1588
 7825SOL    OH249673   5.027   1.954   1.467 -0.5606  0.2378 -0.0579
 7825SOL     H149674   4.966   1.948   1.541 -1.1069  2.3615 -0.3143
 7825SOL     H249675   4.970   1.963   1.390  0.0710  1.1937 -0.4109
 7826SOL    OH249676   7.578   2.224   0.185 -0.4214  0.3977 -0.2016
 7826SOL     H149677   7.515   2.157   0.159  1.1860 -0.2528 -2.5685
 7826SOL     H249678   7.524   2.300   0.207 -2.1318 -0.8056 -0.1742
 7827SOL    OH249679   3.741   2.219   8.036  0.6301  0.0694  0.1518
 7827SOL     H149680   3.693   2.287   8.084  1.2598  0.0217  0.8446
 7827SOL     H249681   3.698   2.216   7.950 -1.1429 -0.5636  1.0444
 7828SOL    OH249682   0.374   1.255   0.081  0.6507  0.4202  0.2220
 7828SOL     H149683   0.351   1.241   0.173 -0.7968  1.5493  0.0639
 7828SOL     H249684   0.460   1.296   0.084  0.0315  1.6857  1.1577
 7829SOL    OH249685   4.648   1.993   1.331 -0.1760  0.1034  0.2082
 7829SOL     H149686   4.676   1.915   1.379  1.8097 -1.5564 -3.4626
 7829SOL     H249687   4.729   2.028   1.294 -1.4974  1.9310 -0.9960
 7830SOL    OH249688   3.736   4.886   8.110  0.4292 -0.3578 -0.0232
 7830SOL     H149689   3.673   4.905   8.179  0.1474  0.3876 -0.4850
 7830SOL     H249690   3.684   4.843   8.042  0.8033 -1.5626  0.4403
 7831SOL    OH249691   0.641   1.888   6.901 -0.0996  0.4136  0.7713
 7831SOL     H149692   0.575   1.913   6.966 -0.4914  1.8331 -0.1402
 7831SOL     H249693   0.656   1.968   6.851 -0.8994 -1.0303 -1.8674
 7832SOL    OH249694   6.417   4.901   0.492 -0.5753  0.1182  0.1388
 7832SOL     H149695   6.479   4.936   0.557  0.0618  0.6356 -0.7350
 7832SOL     H249696   6.384   4.820   0.532  0.3134  0.0752  0.8195
 7833SOL    OH249697   3.420   7.436   0.717 -0.0982  0.3720 -0.0250
 7833SOL     H149698   3.488   7.499   0.696  0.9627 -0.8438 -0.3018
 7833SOL     H249699   3.350   7.488   0.755 -0.0175  1.9552 -1.9730
 7834SOL    OH249700   4.679   7.232   6.654 -0.2612 -0.5550 -0.0417
 7834SOL     H149701   4.642   7.234   6.566  0.3924 -0.3838 -0.3175
 7834SOL     H249702   4.721   7.318   6.664  0.3960 -0.8898  0.1150
 7835SOL    OH249703   1.565   1.896   0.681  0.0573  0.8986 -0.7847
 7835SOL     H149704   1.639   1.926   0.628 -0.3773  2.0245 -0.7824
 7835SOL     H249705   1.547   1.970   0.740 -1.1020  0.6669 -0.8328
 7836SOL    OH249706   0.402   0.174   5.978  0.0214 -0.1133  0.1488
 7836SOL     H149707   0.431   0.234   6.046 -0.9327  0.8221 -0.2622
 7836SOL     H249708   0.319   0.210   5.947 -0.0162 -1.0337 -0.8684
 7837SOL    OH249709   5.389   0.914   7.289  0.2321 -0.2845  0.4995
 7837SOL     H149710   5.303   0.918   7.246  0.2671  0.5406  0.4841
 7837SOL     H249711   5.410   0.821   7.293  0.1823 -0.3914 -1.1809
 7838SOL    OH249712   0.758   4.667   2.511 -0.0720 -0.2119  0.0875
 7838SOL     H149713   0.673   4.699   2.539 -0.1003 -1.8756  2.1030
 7838SOL     H249714   0.739   4.584   2.466  0.5280 -1.1901  1.5806
 7839SOL    OH249715   5.728   3.510   1.900  0.1158 -0.0525 -0.4407
 7839SOL     H149716   5.771   3.448   1.960  2.2180  0.3681 -1.4830
 7839SOL     H249717   5.705   3.584   1.956 -0.6713 -0.9521  0.4403
 7840SOL    OH249718   0.415   6.726   0.171  0.0636  0.1225  0.4011
 7840SOL     H149719   0.391   6.808   0.213 -0.7428 -0.4504  1.0988
 7840SOL     H249720   0.450   6.672   0.242  0.1249 -0.3056  0.0503
 7841SOL    OH249721   4.865   5.845   6.863  0.6910  0.0516 -0.1026
 7841SOL     H149722   4.791   5.843   6.802 -0.4748 -2.2668  1.3484
 7841SOL     H249723   4.942   5.843   6.806 -0.3430  1.0961 -1.5864
 7842SOL    OH249724   2.360   4.159   6.492 -0.0042  0.6577  0.6163
 7842SOL     H149725   2.401   4.228   6.545 -0.7885  0.8711  0.9489
 7842SOL     H249726   2.266   4.169   6.508 -0.0919 -0.7576  0.9821
 7843SOL    OH249727   7.129   5.330   2.624 -1.3292  0.0962  0.0926
 7843SOL     H149728   7.139   5.275   2.546 -1.0348 -0.4506  0.5185
 7843SOL     H249729   7.208   5.384   2.624 -1.9095  0.9696 -0.6720
 7844SOL    OH249730   5.904   0.987   0.656 -0.0034  0.0134  0.2176
 7844SOL     H149731   5.812   0.997   0.631 -0.0574  0.9343  0.7651
 7844SOL     H249732   5.948   0.960   0.575 -0.2720  2.3757 -0.7658
 7845SOL    OH249733   7.987   7.874   6.761  0.2617 -0.4973  0.3383
 7845SOL     H149734   7.996   7.815   6.836 -2.0571  0.2453  1.2691
 7845SOL     H249735   7.893   7.878   6.745  0.7127 -0.6537 -2.6681
 7846SOL    OH249736   2.879   6.425   8.048  0.8552  0.7298 -0.2383
 7846SOL     H149737   2.855   6.397   7.960  2.1049  2.6173 -1.1980
 7846SOL     H249738   2.971   6.449   8.042  2.0611 -2.7748  2.5070
 7847SOL    OH249739   1.303   6.463   8.025  0.3039 -0.4485 -0.2855
 7847SOL     H149740   1.273   6.415   8.103  1.9034  0.4395  0.9105
 7847SOL     H249741   1.275   6.553   8.041  1.1765 -0.1481 -0.4556
 7848SOL    OH249742   7.000   5.670   6.690  0.4999 -0.5648  0.4748
 7848SOL     H149743   6.991   5.606   6.620 -0.1742  0.5596 -0.4696
 7848SOL     H249744   7.080   5.644   6.736 -0.1688 -2.5388  0.5845
 7849SOL    OH249745   2.718   5.424   8.091 -0.4602  0.1236  0.2752
 7849SOL     H149746   2.751   5.346   8.136  0.1923  0.4902  0.4233
 7849SOL     H249747   2.715   5.492   8.158 -0.1124  0.4905 -0.0805
 7850SOL    OH249748   0.608   0.074   6.513 -0.6102 -0.2077 -0.0772
 7850SOL     H149749   0.674   0.034   6.570 -0.3451  0.2278 -0.0762
 7850SOL     H249750   0.642   0.060   6.424 -0.2574  0.4722 -0.0523
 7851SOL    OH249751   5.492   1.027   8.118 -0.2050  0.1595  0.1782
 7851SOL     H149752   5.463   0.993   8.203 -0.9024 -0.6541 -0.3722
 7851SOL     H249753   5.560   1.091   8.140  1.4337 -1.8682  1.2556
 7852SOL    OH249754   0.277   1.273   7.421  0.1100 -0.1112 -0.0208
 7852SOL     H149755   0.213   1.306   7.359 -0.5039  0.5038  0.9292
 7852SOL     H249756   0.360   1.308   7.391 -0.3985  1.4849  0.3947
 7853SOL    OH249757   6.663   5.304   1.688 -0.0797  0.0268  0.1504
 7853SOL     H149758   6.660   5.215   1.725 -0.2281  0.1292  0.3784
 7853SOL     H249759   6.572   5.324   1.667 -0.2125  0.6351  1.2860
 7854SOL    OH249760   5.254   3.366   6.977  0.5127 -0.4474 -0.0747
 7854SOL     H149761   5.243   3.312   6.898 -0.1261 -1.0315  0.4141
 7854SOL     H249762   5.168   3.366   7.019  1.2894 -1.6857  1.6001
 7855SOL    OH249763   5.811   2.455   1.534  0.5813  0.1588 -0.4683
 7855SOL     H149764   5.877   2.401   1.577 -0.2652 -1.3220 -1.0221
 7855SOL     H249765   5.794   2.411   1.451 -0.0011  1.3617 -0.9964
 7856SOL    OH249766   4.168   0.525   8.121  0.3452  0.0022  0.4296
 7856SOL     H149767   4.145   0.505   8.211  0.1000 -0.5972  0.2410
 7856SOL     H249768   4.251   0.572   8.126  1.2994 -1.6706  0.8600
 7857SOL    OH249769   3.210   0.279   0.598  0.3460 -0.0008  0.1019
 7857SOL     H149770   3.141   0.226   0.558  0.1634  0.8241 -0.6755
 7857SOL     H249771   3.267   0.215   0.641 -0.0148 -0.8066 -0.6158
 7858SOL    OH249772   3.333   3.064   2.284 -0.2993 -0.0612  0.0618
 7858SOL     H149773   3.276   3.140   2.275  0.8601  0.8246  0.2266
 7858SOL     H249774   3.401   3.076   2.218 -0.1103 -0.9514  0.0885
 7859SOL    OH249775   0.159   6.864   8.023 -0.1004 -0.3806 -0.1802
 7859SOL     H149776   0.239   6.915   8.037  0.7782 -2.1442  1.4864
 7859SOL     H249777   0.088   6.929   8.029  0.9967  0.6986  1.7958
 7860SOL    OH249778   5.774   7.904   0.364  0.0558  0.3821 -0.0990
 7860SOL     H149779   5.836   7.837   0.333 -1.6294 -0.8886 -0.8242
 7860SOL     H249780   5.740   7.868   0.447  0.0819  0.9464  0.1579
 7861SOL    OH249781   7.845   4.757   1.306 -0.2063 -0.1533  0.1139
 7861SOL     H149782   7.823   4.673   1.266  0.5447 -0.1469 -0.3228
 7861SOL     H249783   7.932   4.779   1.270  0.7911 -0.4799  2.2723
 7862SOL    OH249784   0.107   5.338   1.391  0.3452  0.2807 -0.6366
 7862SOL     H149785   0.126   5.294   1.473  1.0585 -1.4880 -1.7173
 7862SOL     H249786   0.025   5.384   1.407 -0.2584 -1.1869  0.6311
 7863SOL    OH249787   5.849   0.756   6.464  0.4541  0.4561  0.2669
 7863SOL     H149788   5.796   0.676   6.471  0.4814  0.5267  1.3514
 7863SOL     H249789   5.847   0.778   6.371  1.5978 -1.6097 -0.2877
 7864SOL    OH249790   6.111   1.591   6.414 -0.4037 -0.1288 -0.8169
 7864SOL     H149791   6.163   1.669   6.430  0.4835 -0.4477 -2.0249
 7864SOL     H249792   6.028   1.608   6.458  0.3332  0.8347  0.2327
 7865SOL    OH249793   0.474   4.905   7.952 -0.4275  0.0645 -1.2919
 7865SOL     H149794   0.397   4.871   7.908 -0.6670 -0.1105 -0.7458
 7865SOL     H249795   0.468   5.000   7.943  0.4025 -0.0373 -3.0939
 7866SOL    OH249796   3.161   6.000   6.195  0.5183 -0.0178 -0.3789
 7866SOL     H149797   3.165   5.964   6.284  0.5312  0.8482 -0.0209
 7866SOL     H249798   3.165   5.923   6.138 -0.6325 -0.6681  0.3865
 7867SOL    OH249799   2.525   4.430   1.265 -0.3473 -0.3338 -0.3428
 7867SOL     H149800   2.464   4.433   1.338 -2.5857 -0.9200 -2.1426
 7867SOL     H249801   2.556   4.339   1.263 -0.9949 -0.5446 -0.6985
 7868SOL    OH249802   3.868   6.999   1.971  0.1268  0.5140 -0.3867
 7868SOL     H149803   3.836   6.944   1.899  1.3518  0.5602 -0.9761
 7868SOL     H249804   3.850   6.947   2.050 -0.8964  0.3096 -0.7511
 7869SOL    OH249805   4.719   5.479   6.605  0.2037 -0.4006 -0.3321
 7869SOL     H149806   4.686   5.450   6.520 -0.1911 -2.7784  0.6059
 7869SOL     H249807   4.804   5.436   6.614  1.0681  1.2578 -0.2710
 7870SOL    OH249808   7.371   2.637   1.586  0.2886 -0.2818 -0.3130
 7870SOL     H149809   7.359   2.579   1.511 -0.6229  0.9768 -1.1613
 7870SOL     H249810   7.460   2.672   1.576 -0.3390  0.9912 -1.6183
 7871SOL    OH249811   6.740   6.424   6.532 -0.3879 -0.1628 -0.2542
 7871SOL     H149812   6.829   6.400   6.509  0.3624  1.1133  1.2472
 7871SOL     H249813   6.718   6.497   6.474  0.0485  0.4180  0.3047
 7872SOL    OH249814   3.892   2.914   2.523 -0.3298  0.1206  0.2028
 7872SOL     H149815   3.930   2.907   2.436 -0.1029 -0.3003  0.3346
 7872SOL     H249816   3.896   2.826   2.559  0.9697  0.5762  1.2138
 7873SOL    OH249817   0.482   5.510   6.474 -0.0483  0.0315 -0.2925
 7873SOL     H149818   0.536   5.586   6.494  1.1101 -0.9152  0.2564
 7873SOL     H249819   0.413   5.543   6.416  0.2513  1.5472  0.2109
 7874SOL    OH249820   7.536   7.835   1.991 -0.4049 -0.2825 -1.1258
 7874SOL     H149821   7.496   7.893   1.927 -2.0718  1.8441  1.6957
 7874SOL     H249822   7.615   7.881   2.020 -0.6114 -0.3586 -0.4123
 7875SOL    OH249823   4.820   2.449   1.475  0.3408 -0.1370  0.2218
 7875SOL     H149824   4.790   2.402   1.553 -2.5220 -0.4776 -1.0397
 7875SOL     H249825   4.892   2.504   1.506 -0.5462 -0.5014  3.0231
 7876SOL    OH249826   2.034   4.377   7.376  0.3645  0.4426 -0.3071
 7876SOL     H149827   1.956   4.381   7.320 -0.7207 -0.9088  1.0620
 7876SOL     H249828   2.082   4.458   7.357 -1.7848  1.6866 -0.5994
 7877SOL    OH249829   4.760   2.900   0.275 -0.2504  0.1113  0.4909
 7877SOL     H149830   4.672   2.917   0.243 -0.4052 -2.9118 -0.8763
 7877SOL     H249831   4.747   2.861   0.362 -0.2815 -0.3132  0.2987
 7878SOL    OH249832   6.233   1.061   7.152  0.4570  0.4440  0.0759
 7878SOL     H149833   6.305   1.026   7.204  0.3839  0.3564  0.1184
 7878SOL     H249834   6.215   1.147   7.191  0.5671  0.4850  0.0374
 7879SOL    OH249835   6.305   5.142   6.951 -0.1038  0.0137 -0.1467
 7879SOL     H149836   6.242   5.213   6.941  0.0810  0.0514 -1.1318
 7879SOL     H249837   6.341   5.130   6.863  0.9194 -0.3215  0.3182
 7880SOL    OH249838   5.742   1.559   0.848 -0.3790  0.3132 -0.2134
 7880SOL     H149839   5.741   1.579   0.941  1.2885  0.9293 -0.3202
 7880SOL     H249840   5.794   1.629   0.808 -0.4535 -0.3447 -1.5130
 7881SOL    OH249841   2.636   0.852   6.558  0.5804  0.3465 -0.3980
 7881SOL     H149842   2.720   0.892   6.580 -0.0059  2.2796 -1.5435
 7881SOL     H249843   2.570   0.908   6.598 -0.1799 -1.3779  0.8350
 7882SOL    OH249844   2.575   5.437   7.846  0.1403  0.5410 -0.1851
 7882SOL     H149845   2.609   5.512   7.797  0.1903  0.6975  0.0886
 7882SOL     H249846   2.631   5.431   7.924  2.1338 -1.7004 -1.7356
 7883SOL    OH249847   1.304   2.683   6.378 -0.4161 -0.1616  0.1267
 7883SOL     H149848   1.256   2.602   6.361  0.4542 -0.6136 -0.1981
 7883SOL     H249849   1.396   2.660   6.363 -0.4239  1.6943 -3.1383
 7884SOL    OH249850   7.643   6.356   7.351 -0.0352  0.4219  0.1184
 7884SOL     H149851   7.551   6.332   7.348 -0.4379  1.9326 -0.2617
 7884SOL     H249852   7.655   6.415   7.277  1.3276 -0.0789 -0.0642
 7885SOL    OH249853   4.709   3.780   2.331 -0.6750 -0.4069  0.2213
 7885SOL     H149854   4.669   3.693   2.337 -0.4628 -0.5132  0.1209
 7885SOL     H249855   4.635   3.840   2.328 -0.8253 -0.5911  0.2016
 7886SOL    OH249856   4.710   2.146   0.474  0.4472  0.8163  0.0222
 7886SOL     H149857   4.617   2.139   0.452  0.2302 -0.1280  1.1946
 7886SOL     H249858   4.741   2.055   0.473  1.0591  1.0119  0.8638
 7887SOL    OH249859   4.580   5.336   6.402  0.2299 -0.1839  0.8173
 7887SOL     H149860   4.583   5.253   6.449  0.6019 -0.8333 -0.3176
 7887SOL     H249861   4.553   5.312   6.313 -0.0580  0.9592  0.5794
 7888SOL    OH249862   7.672   0.131   8.085 -0.5682 -0.2032 -0.5563
 7888SOL     H149863   7.692   0.146   7.992  0.3247  3.2519  0.1492
 7888SOL     H249864   7.596   0.185   8.102  1.1007  1.5768  1.4444
 7889SOL    OH249865   3.078   7.559   1.669 -0.1127 -0.4992  0.4496
 7889SOL     H149866   3.125   7.613   1.606 -1.9093 -0.8407 -1.2227
 7889SOL     H249867   3.073   7.613   1.748 -0.0692  0.9513 -0.5204
 7890SOL    OH249868   4.988   1.356   6.544 -0.0969  0.1136 -0.1593
 7890SOL     H149869   5.057   1.296   6.515 -1.0016  0.0242 -2.1546
 7890SOL     H249870   5.014   1.379   6.634  1.9316 -0.7788 -0.4767
 7891SOL    OH249871   1.529   3.652   0.233 -0.0682 -0.0262  0.0689
 7891SOL     H149872   1.574   3.736   0.240 -0.4775  0.2313 -0.3728
 7891SOL     H249873   1.447   3.672   0.187 -0.7518 -0.4367  1.0695
 7892SOL    OH249874   2.292   5.235   0.040  0.2195 -0.0829 -0.3371
 7892SOL     H149875   2.383   5.248   0.013 -0.2087  0.6529 -1.4537
 7892SOL     H249876   2.247   5.314   0.012 -0.2663  0.7848  2.6478
 7893SOL    OH249877   3.328   2.735   1.501 -0.2073  0.6436 -0.0546
 7893SOL     H149878   3.273   2.806   1.533 -0.5531  0.2898  0.1492
 7893SOL     H249879   3.377   2.773   1.428 -0.7908  0.9427 -0.2940
 7894SOL    OH249880   2.129   6.559   6.933 -0.2963 -0.1358 -0.1771
 7894SOL     H149881   2.204   6.588   6.986  0.0066 -0.0165 -0.6691
 7894SOL     H249882   2.057   6.614   6.963 -0.3465 -0.6844  0.7487
 7895SOL    OH249883   5.133   1.742   0.493 -0.3944 -0.0442 -0.0419
 7895SOL     H149884   5.186   1.820   0.509 -1.0351  0.2934  0.4288
 7895SOL     H249885   5.071   1.769   0.425  1.1317 -0.9414 -1.8585
 7896SOL    OH249886   1.741   0.546   6.436  0.2660  0.1672 -0.0338
 7896SOL     H149887   1.779   0.615   6.382  1.0252  0.7323  1.2052
 7896SOL     H249888   1.698   0.488   6.374 -1.8296  2.6517 -0.9503
 7897SOL    OH249889   0.797   2.787   2.257 -0.1214 -0.6182  0.6702
 7897SOL     H149890   0.730   2.847   2.225  1.5412  1.0319  0.1971
 7897SOL     H249891   0.806   2.809   2.350 -0.6492 -1.2704  0.8847
 7898SOL    OH249892   2.470   7.745   0.691  0.4300 -0.4037  0.4471
 7898SOL     H149893   2.539   7.694   0.734 -0.4007 -0.3759  1.8535
 7898SOL     H249894   2.389   7.705   0.722 -0.2221  1.1192  0.7359
 7899SOL    OH249895   6.046   3.578   7.576  0.0612 -0.1417  0.1856
 7899SOL     H149896   5.993   3.519   7.522 -0.1503  0.6314 -0.4705
 7899SOL     H249897   6.085   3.521   7.642  1.2521 -1.3248 -1.4803
 7900SOL    OH249898   3.853   3.229   1.492  0.0654  0.0650  0.0294
 7900SOL     H149899   3.826   3.317   1.465 -2.1475 -0.0085  1.8648
 7900SOL     H249900   3.796   3.170   1.443 -1.0891 -0.1959  1.6350
 7901SOL    OH249901   4.894   2.812   1.481 -0.4328  0.1781 -0.0574
 7901SOL     H149902   4.933   2.831   1.396 -3.0126 -0.4559 -1.4462
 7901SOL     H249903   4.808   2.855   1.478 -1.6126 -1.9717  1.1844
 7902SOL    OH249904   3.732   3.283   8.221 -0.2488 -0.0357  0.5113
 7902SOL     H149905   3.800   3.274   8.288 -0.5524 -0.1087  0.8175
 7902SOL     H249906   3.713   3.377   8.219  0.0860  0.0245  0.1959
 7903SOL    OH249907   2.698   7.519   1.184 -0.1927  0.6490  0.1513
 7903SOL     H149908   2.763   7.524   1.254  0.2083  1.5186 -0.2701
 7903SOL     H249909   2.619   7.557   1.221 -0.6746 -1.0465  0.8933
 7904SOL    OH249910   1.710   5.384   7.982 -0.5041  0.1904  0.3395
 7904SOL     H149911   1.682   5.386   7.891  0.1959  0.5710  0.1277
 7904SOL     H249912   1.737   5.474   8.001  0.2134 -0.0865  0.6462
 7905SOL    OH249913   4.957   3.620   7.089 -0.1776 -0.4441 -0.0319
 7905SOL     H149914   4.962   3.651   6.998 -2.0791  0.9956  0.3147
 7905SOL     H249915   4.961   3.525   7.082  1.5884 -0.3020 -1.4706
 7906SOL    OH249916   3.076   1.243   0.272  0.0165  0.1943  0.3425
 7906SOL     H149917   3.048   1.161   0.312 -0.1240  0.6929  1.2662
 7906SOL     H249918   3.020   1.310   0.311 -2.6497  0.2788 -3.3442
 7907SOL    OH249919   5.520   3.092   0.123  0.2009 -0.0683  0.0039
 7907SOL     H149920   5.561   3.167   0.165  1.2057 -0.9973  0.6949
 7907SOL     H249921   5.464   3.054   0.190  0.7282 -0.7305  0.0720
 7908SOL    OH249922   0.427   5.983   6.631 -0.2707  0.3728  0.1978
 7908SOL     H149923   0.415   6.011   6.541 -0.4338 -0.5696 -0.0753
 7908SOL     H249924   0.522   5.977   6.642 -0.2618  0.1256 -0.0209
 7909SOL    OH249925   2.869   5.472   1.265  0.0154 -0.2082  0.4210
 7909SOL     H149926   2.904   5.403   1.208  1.3126 -1.0317  2.1571
 7909SOL     H249927   2.927   5.547   1.249 -0.3171 -0.0742 -0.1712
 7910SOL    OH249928   2.746   5.095   1.156 -0.2205  0.2478  0.3000
 7910SOL     H149929   2.694   5.067   1.081  0.7022 -0.9544  0.1075
 7910SOL     H249930   2.825   5.042   1.153 -0.1847  0.1540  2.1433
 7911SOL    OH249931   0.672   6.088   1.521 -0.0136  0.1581 -0.3171
 7911SOL     H149932   0.661   6.036   1.441  1.8496  0.6955 -0.9517
 7911SOL     H249933   0.701   6.024   1.587 -0.4502 -0.0798 -0.3488
 7912SOL    OH249934   0.530   5.282   1.157 -0.1737  0.1663 -0.4542
 7912SOL     H149935   0.566   5.293   1.069  0.4151 -0.2800 -0.2703
 7912SOL     H249936   0.457   5.344   1.160  1.1269  1.7568 -0.5188
 7913SOL    OH249937   7.753   1.919   0.159 -0.4507 -0.2570 -0.1304
 7913SOL     H149938   7.687   1.902   0.227 -0.4109 -0.2125 -0.0805
 7913SOL     H249939   7.831   1.945   0.209 -0.6911  0.6659 -0.2306
 7914SOL    OH249940   4.190   3.333   8.168 -0.4188  0.8025  0.1957
 7914SOL     H149941   4.131   3.385   8.113 -1.0933  1.8209  1.8517
 7914SOL     H249942   4.277   3.368   8.148 -0.5269  0.4289 -1.0107
 7915SOL    OH249943   2.195   5.479   0.938  0.6330  0.3637  0.2047
 7915SOL     H149944   2.235   5.470   0.852 -0.2405 -2.2837  0.0283
 7915SOL     H249945   2.142   5.558   0.932  1.4621  0.8243 -1.3204
 7916SOL    OH249946   5.805   7.585   1.819 -0.1478 -0.0906 -0.1571
 7916SOL     H149947   5.876   7.547   1.767 -0.7058 -0.4359 -0.6821
 7916SOL     H249948   5.741   7.613   1.754 -0.1942  0.8261  0.2865
 7917SOL    OH249949   2.238   4.733   1.579 -0.3863  0.3766 -0.2167
 7917SOL     H149950   2.161   4.743   1.523  0.8631 -1.1463 -2.2503
 7917SOL     H249951   2.313   4.742   1.520  0.9863 -0.0886  1.3946
 7918SOL    OH249952   0.265   3.872   7.630  0.6526 -0.1796  0.1236
 7918SOL     H149953   0.227   3.854   7.716 -2.3750  1.9641 -0.6811
 7918SOL     H249954   0.239   3.798   7.576  0.7418 -0.5047  0.5299
 7919SOL    OH249955   7.458   6.815   0.506  0.3141 -0.6948  0.0478
 7919SOL     H149956   7.478   6.844   0.417 -0.0909  0.8034  0.4306
 7919SOL     H249957   7.415   6.731   0.495 -1.6038  0.4245 -1.3007
 7920SOL    OH249958   6.339   6.097   0.591 -0.6052  0.6177  0.0953
 7920SOL     H149959   6.351   6.014   0.544 -0.4024 -0.0514  1.3177
 7920SOL     H249960   6.425   6.140   0.585 -0.3250  0.1295  0.6322
 7921SOL    OH249961   6.544   2.762   6.208  0.2332 -0.8043 -0.6548
 7921SOL     H149962   6.481   2.690   6.205 -0.6020 -0.2370  1.8869
 7921SOL     H249963   6.519   2.813   6.285  2.3681  0.7673 -0.9425
 7922SOL    OH249964   7.846   3.097   1.416 -0.4546  0.0869  0.7737
 7922SOL     H149965   7.898   3.177   1.413  3.1305 -2.1460  0.0346
 7922SOL     H249966   7.906   3.031   1.452 -3.3466 -2.2497  1.5300
 7923SOL    OH249967   4.557   3.793   1.098  0.2514  0.3311 -0.1594
 7923SOL     H149968   4.474   3.819   1.059 -1.1474  0.9497  3.0454
 7923SOL     H249969   4.536   3.717   1.152  1.5090  1.1720  1.5763
 7924SOL    OH249970   0.884   6.937   8.273  0.0397  0.6565  0.2196
 7924SOL     H149971   0.923   6.871   8.216  0.7688  0.3561  1.0567
 7924SOL     H249972   0.795   6.949   8.239  1.0276  1.7515 -2.0389
 7925SOL    OH249973   0.862   7.902   6.562  0.0542 -0.2554  0.2635
 7925SOL     H149974   0.894   7.852   6.487  1.7282  1.0802  0.0440
 7925SOL     H249975   0.881   7.846   6.638 -1.1653 -1.3770 -0.2291
 7926SOL    OH249976   1.310   4.342   0.137 -0.2633 -0.1118 -0.6684
 7926SOL     H149977   1.271   4.425   0.164 -0.3484  0.0335 -1.2266
 7926SOL     H249978   1.373   4.366   0.069  1.9819 -0.1759  1.3433
 7927SOL    OH249979   0.203   6.119   1.944  0.4754 -0.2114  0.3226
 7927SOL     H149980   0.264   6.059   1.902 -0.5884 -0.8377 -0.3493
 7927SOL     H249981   0.123   6.113   1.892  0.0967  1.1960  0.7162
 7928SOL    OH249982   2.465   6.253   0.291  0.2771 -0.2936  0.1291
 7928SOL     H149983   2.510   6.170   0.275 -0.5432 -0.2072 -3.0219
 7928SOL     H249984   2.524   6.319   0.255 -0.0782  0.2896  0.6108
 7929SOL    OH249985   7.720   4.588   0.354 -0.6254 -0.5172 -0.0334
 7929SOL     H149986   7.677   4.543   0.282  0.2061 -1.7467  0.2139
 7929SOL     H249987   7.653   4.593   0.423 -1.0416 -0.4230 -0.4433
 7930SOL    OH249988   4.467   6.692   0.463  0.5186 -0.4688  0.2406
 7930SOL     H149989   4.398   6.757   0.450 -0.8715 -1.8944  0.2432
 7930SOL     H249990   4.432   6.612   0.423  2.0615 -1.2845  0.4912
 7931SOL    OH249991   1.507   2.333   1.938  0.5964 -0.4935 -0.3065
 7931SOL     H149992   1.481   2.425   1.946  0.6078 -0.5646  0.6336
 7931SOL     H249993   1.469   2.304   1.855 -0.9054 -0.1339  0.2423
 7932SOL    OH249994   4.440   1.229   1.035 -0.1863  0.1178  0.6828
 7932SOL     H149995   4.522   1.183   1.053  0.0316  0.4351  0.4953
 7932SOL     H249996   4.394   1.172   0.974  0.6305  0.7402 -0.5304
 7933SOL    OH249997   1.168   1.599   1.595  0.3451 -0.3418 -0.8561
 7933SOL     H149998   1.263   1.594   1.586  0.4946 -1.3943  0.9571
 7933SOL     H249999   1.148   1.693   1.593  1.4276 -0.1112 -1.1117
 7934SOL    OH250000   3.750   7.857   7.278 -0.0688  0.1442  0.4200
 7934SOL     H150001   3.837   7.852   7.318  0.0999 -0.7854 -0.0441
 7934SOL     H250002   3.716   7.768   7.284 -0.1243  0.0299 -1.3339
 7935SOL    OH250003   6.232   3.985   1.728  0.6403  0.0272  0.0077
 7935SOL     H150004   6.284   3.910   1.756 -0.2508 -0.0425  1.5223
 7935SOL     H250005   6.234   4.045   1.803  0.5810  1.1090 -0.8449
 7936SOL    OH250006   1.912   0.683   8.143 -0.3685 -0.4060  0.4833
 7936SOL     H150007   1.944   0.769   8.116 -0.5022 -1.3504 -2.9610
 7936SOL     H250008   1.881   0.696   8.233 -0.7028  3.2204 -0.0688
 7937SOL    OH250009   5.394   1.981   7.774 -1.1961  0.1269  0.0589
 7937SOL     H150010   5.468   1.964   7.832  1.0139  0.3365 -2.5633
 7937SOL     H250011   5.344   1.900   7.773 -0.8800 -0.1022  1.6645
 7938SOL    OH250012   0.187   0.487   6.650 -0.9609 -0.3963 -0.7657
 7938SOL     H150013   0.196   0.530   6.735  0.3200 -1.4545 -0.3566
 7938SOL     H250014   0.194   0.394   6.668 -0.9963 -0.6561 -1.9999
 7939SOL    OH250015   4.643   7.661   1.164  0.0699 -0.0888 -0.8145
 7939SOL     H150016   4.631   7.566   1.162 -0.4837 -0.0364 -0.1307
 7939SOL     H250017   4.559   7.697   1.134 -0.8691  0.2457  2.1122
 7940SOL    OH250018   1.154   5.271   8.003  0.3327 -0.8440 -0.5592
 7940SOL     H150019   1.178   5.275   8.096  0.6958  0.3212 -0.6929
 7940SOL     H250020   1.096   5.347   7.990  1.1816 -0.3602 -1.5365
 7941SOL    OH250021   2.579   3.754   8.157  0.3137  0.6743  0.3612
 7941SOL     H150022   2.558   3.847   8.171 -1.0725  0.5065 -0.5587
 7941SOL     H250023   2.537   3.709   8.230  1.0087  0.7531  0.8230
 7942SOL    OH250024   4.464   1.071   0.395 -0.5307  0.3736  0.4757
 7942SOL     H150025   4.555   1.072   0.426 -0.5880  0.0031  0.6526
 7942SOL     H250026   4.431   1.159   0.415  0.4884  1.2801 -1.6627
 7943SOL    OH250027   5.359   6.478   5.980 -0.5968  0.3693 -0.5575
 7943SOL     H150028   5.407   6.417   5.924  0.6014  2.1814 -1.5480
 7943SOL     H250029   5.297   6.521   5.920 -0.2041  1.3973 -0.2201
 7944SOL    OH250030   0.912   4.971   0.219 -0.0398 -0.0474 -0.5077
 7944SOL     H150031   0.952   5.058   0.223  1.2688 -0.4840 -3.0625
 7944SOL     H250032   0.825   4.987   0.182 -0.0111  0.2483 -0.4537
 7945SOL    OH250033   1.658   7.896   6.118  0.3954  0.0296 -0.3645
 7945SOL     H150034   1.678   7.882   6.025  1.8965 -1.8213  0.2016
 7945SOL     H250035   1.681   7.988   6.133  3.2501 -0.4997 -1.1091
 7946SOL    OH250036   5.803   1.081   8.067 -0.0655 -0.0041 -0.2464
 7946SOL     H150037   5.779   1.138   8.141 -0.9338 -1.1053  0.3393
 7946SOL     H250038   5.897   1.067   8.076 -0.2866 -0.7068  1.0751
 7947SOL    OH250039   7.445   0.294   8.044  0.3088  0.2230  0.0005
 7947SOL     H150040   7.483   0.374   8.081  1.0624  0.0505 -0.3927
 7947SOL     H250041   7.405   0.322   7.962 -2.2593  0.8041  1.3927
 7948SOL    OH250042   6.499   0.948   0.909 -0.1084 -0.2218 -0.2757
 7948SOL     H150043   6.485   0.883   0.841 -0.9389  0.3656 -0.6779
 7948SOL     H250044   6.593   0.942   0.929 -0.3286 -2.1174  0.2980
 7949SOL    OH250045   4.299   1.203   6.218  0.0644 -0.2505 -0.9297
 7949SOL     H150046   4.281   1.287   6.259 -1.1725  0.7889 -3.4523
 7949SOL     H250047   4.278   1.138   6.284 -1.1200  1.3693  0.3168
 7950SOL    OH250048   6.903   4.194   7.647 -0.7521 -0.2452 -0.3382
 7950SOL     H150049   6.858   4.251   7.585 -0.2705 -1.9687 -2.3089
 7950SOL     H250050   6.866   4.107   7.633  1.1642 -1.1534 -0.0438
 7951SOL    OH250051   6.893   1.830   1.552  0.0352  0.0245 -0.3130
 7951SOL     H150052   6.825   1.881   1.507  1.1292  0.1224 -1.9001
 7951SOL     H250053   6.958   1.896   1.578  0.6285 -0.3497 -0.8458
 7952SOL    OH250054   0.970   5.340   1.335  0.2764  0.6744 -0.6015
 7952SOL     H150055   0.982   5.401   1.408 -0.6595 -0.0893  0.2094
 7952SOL     H250056   0.878   5.314   1.341  1.3209 -2.9981  0.8464
 7953SOL    OH250057   0.566   7.142   0.096  0.3645 -0.5142 -0.0963
 7953SOL     H150058   0.577   7.069   0.035  1.1184 -0.4483 -0.0481
 7953SOL     H250059   0.565   7.220   0.041 -0.7073 -0.5695 -0.1714
 7954SOL    OH250060   3.144   1.821   1.926 -0.1536 -0.0127 -0.7093
 7954SOL     H150061   3.217   1.801   1.985  1.1877 -2.1681 -2.9991
 7954SOL     H250062   3.072   1.769   1.960  0.2884 -0.3683 -0.3044
 7955SOL    OH250063   4.068   2.086   1.375  0.8156 -0.4795  0.3195
 7955SOL     H150064   4.040   2.069   1.285  0.6057  1.6599 -0.0530
 7955SOL     H250065   3.987   2.085   1.426  0.8332 -0.8130  0.3422
 7956SOL    OH250066   3.778   2.723   6.291  0.1842  0.3038  0.2820
 7956SOL     H150067   3.812   2.781   6.222 -1.8694 -0.2019 -1.2294
 7956SOL     H250068   3.742   2.648   6.243  0.3767 -0.9368  2.0503
 7957SOL    OH250069   7.200   4.436   1.797  0.6478  0.1331 -0.0194
 7957SOL     H150070   7.144   4.468   1.867 -1.3410 -1.5520 -0.8158
 7957SOL     H250071   7.175   4.487   1.720  0.3981 -0.4298 -0.3146
 7958SOL    OH250072   4.038   3.035   6.307  0.0630 -0.1081  0.2022
 7958SOL     H150073   4.072   2.984   6.234 -0.6420  1.2824 -1.1236
 7958SOL     H250074   4.033   2.972   6.380 -0.5565 -1.8495 -1.3036
 7959SOL    OH250075   7.341   1.349   1.651 -0.3659 -0.8033  0.1864
 7959SOL     H150076   7.355   1.433   1.606 -0.4197 -1.6327 -1.4130
 7959SOL     H250077   7.349   1.370   1.744  1.0771  0.7035 -0.2600
 7960SOL    OH250078   6.129   0.647   7.621 -0.4957  0.3073  0.8738
 7960SOL     H150079   6.145   0.586   7.692 -0.6085  0.9712  1.4824
 7960SOL     H250080   6.033   0.656   7.619 -0.5376 -0.2439  0.1735
 7961SOL    OH250081   7.127   4.920   6.995 -0.6036  0.1855 -0.3162
 7961SOL     H150082   7.091   4.835   7.019  0.0564 -0.0321 -0.0739
 7961SOL     H250083   7.212   4.923   7.039 -0.4227  0.7781 -0.6973
 7962SOL    OH250084   2.657   0.176   8.255 -0.6018  0.1623 -0.3096
 7962SOL     H150085   2.612   0.094   8.235  0.6458 -0.8105  0.7358
 7962SOL     H250086   2.743   0.149   8.286 -1.0095  1.7756  2.3459
 7963SOL    OH250087   1.224   3.415   6.921  0.3809 -0.1728 -0.0359
 7963SOL     H150088   1.316   3.389   6.914  0.4725  0.3958 -1.1051
 7963SOL     H250089   1.176   3.334   6.939  1.1135 -0.4330  0.7756
 7964SOL    OH250090   6.731   0.379   6.598 -0.2839 -0.0425 -0.2618
 7964SOL     H150091   6.764   0.337   6.678 -1.1911 -0.3111 -0.0196
 7964SOL     H250092   6.721   0.471   6.621 -2.6912 -0.4887  0.6660
 7965SOL    OH250093   2.068   1.012   0.570 -0.0334 -0.1664 -0.4876
 7965SOL     H150094   2.132   0.985   0.635 -1.4958 -1.4470  0.4803
 7965SOL     H250095   2.091   0.961   0.492 -0.0768 -0.8993 -0.0323
 7966SOL    OH250096   1.096   6.013   1.129 -0.3261  0.1575  0.2469
 7966SOL     H150097   1.160   5.957   1.174  0.4298  1.0722  0.3360
 7966SOL     H250098   1.098   5.984   1.038 -0.3354 -0.3155  0.3970
 7967SOL    OH250099   5.853   5.092   5.871  0.0538  0.1885 -0.3785
 7967SOL     H150100   5.822   5.083   5.781  1.0782 -1.4690 -0.5676
 7967SOL     H250101   5.875   5.185   5.879 -2.4086  0.8729 -1.0449
 7968SOL    OH250102   7.917   2.275   8.008  0.2511 -0.2678  0.2280
 7968SOL     H150103   7.896   2.198   8.062  0.7005  0.4603  1.4652
 7968SOL     H250104   7.858   2.343   8.040  1.4237  0.5392  0.6993
 7969SOL    OH250105   7.014   5.375   7.438 -0.0374 -0.7951  0.1929
 7969SOL     H150106   6.947   5.396   7.503 -1.5064 -0.0479 -1.5154
 7969SOL     H250107   6.965   5.340   7.364  1.4878 -0.3814 -1.0326
 7970SOL    OH250108   4.494   4.820   0.168 -0.1546 -0.0825 -0.6249
 7970SOL     H150109   4.440   4.890   0.133 -0.8652 -0.1532  0.3270
 7970SOL     H250110   4.437   4.743   0.169 -0.1051 -0.1120  0.5594
 7971SOL    OH250111   4.630   7.020   6.984  0.2750 -0.2255  0.3922
 7971SOL     H150112   4.725   7.011   6.987  0.2126 -0.9471  0.2208
 7971SOL     H250113   4.609   7.020   6.890  0.2040  1.0011  0.3999
 7972SOL    OH250114   4.094   6.306   7.726 -0.7769 -0.4380 -0.1454
 7972SOL     H150115   4.033   6.233   7.723  1.3115 -2.1675 -1.3904
 7972SOL     H250116   4.137   6.306   7.641 -0.0486  1.6646  0.1813
 7973SOL    OH250117   2.696   6.414   7.391 -0.3280  0.6012 -0.1205
 7973SOL     H150118   2.654   6.486   7.345  0.2475  0.7107 -0.4905
 7973SOL     H250119   2.750   6.372   7.324  0.6620  0.8786  0.4916
 7974SOL    OH250120   3.588   7.246   1.112 -0.3709  0.5219 -0.1789
 7974SOL     H150121   3.544   7.176   1.159  0.5198 -0.4063 -0.7034
 7974SOL     H250122   3.681   7.231   1.127 -0.1823  1.8611  0.0717
 7975SOL    OH250123   7.610   0.863   0.408 -0.0420  0.3224  0.3270
 7975SOL     H150124   7.596   0.904   0.493  0.6094 -0.4253  0.8103
 7975SOL     H250125   7.554   0.911   0.348  0.9799  2.1679  0.7987
 7976SOL    OH250126   4.508   6.985   0.882 -0.0042 -0.1507 -0.3811
 7976SOL     H150127   4.554   6.902   0.870 -1.7167 -1.1168 -0.3854
 7976SOL     H250128   4.466   7.002   0.797  1.6572  1.5740 -0.9120
 7977SOL    OH250129   7.891   6.704   7.979  0.1808  0.0949 -0.6401
 7977SOL     H150130   7.840   6.754   7.915 -0.7557 -0.8569 -0.6497
 7977SOL     H250131   7.968   6.759   7.996 -0.3836  1.1219 -1.3210
 7978SOL    OH250132   5.647   0.726   0.228 -0.0760 -0.5128  0.1199
 7978SOL     H150133   5.673   0.772   0.148  1.3444 -1.4470  0.0120
 7978SOL     H250134   5.615   0.794   0.286 -0.8177  0.2235 -1.1327
 7979SOL    OH250135   6.614   1.302   1.648 -0.7214  0.2076 -0.1024
 7979SOL     H150136   6.642   1.318   1.558  1.3388  0.2932  0.5089
 7979SOL     H250137   6.525   1.269   1.641 -1.4167  2.4434 -2.0018
 7980SOL    OH250138   7.314   3.206   0.942 -0.3467  0.3286  0.1914
 7980SOL     H150139   7.298   3.134   1.002 -0.2137 -0.4906 -0.7466
 7980SOL     H250140   7.381   3.259   0.985  1.3124 -1.4121 -0.1905
 7981SOL    OH250141   4.913   6.874   1.312  0.0848  0.0142  0.1710
 7981SOL     H150142   4.966   6.850   1.388  1.2513 -1.1375 -0.9785
 7981SOL     H250143   4.940   6.963   1.290  1.1081 -0.3526 -0.0448
 7982SOL    OH250144   6.290   1.114   0.437  0.3928  0.1896  0.0982
 7982SOL     H150145   6.257   1.204   0.428  1.1355  0.4427 -0.0967
 7982SOL     H250146   6.247   1.081   0.516 -1.0755  0.1823 -0.6831
 7983SOL    OH250147   2.525   4.819   6.270  0.3683  0.3959  0.0566
 7983SOL     H150148   2.572   4.821   6.186  0.6926  0.1423  0.2336
 7983SOL     H250149   2.539   4.730   6.303  0.0488  0.4281  0.2719
 7984SOL    OH250150   5.656   3.605   0.526 -0.4666 -0.7171 -0.2595
 7984SOL     H150151   5.583   3.576   0.580 -0.5345 -0.7156 -0.3512
 7984SOL     H250152   5.648   3.701   0.524 -1.2786 -0.7932 -1.4165
 7985SOL    OH250153   0.974   1.100   0.507 -0.5000 -0.2382 -0.5638
 7985SOL     H150154   0.937   1.188   0.494 -0.4422 -0.3611 -1.5876
 7985SOL     H250155   0.986   1.066   0.418 -0.9587 -1.4687 -0.1644
 7986SOL    OH250156   5.139   5.416   6.099 -0.0232  0.1033  0.0617
 7986SOL     H150157   5.113   5.442   6.011 -0.6131 -0.2644  0.1285
 7986SOL     H250158   5.071   5.452   6.156  0.5770  0.6987  0.4101
 7987SOL    OH250159   0.026   7.798   6.501  0.4490 -0.3210  0.0862
 7987SOL     H150160   0.049   7.842   6.583  1.0104  2.1877 -1.4015
 7987SOL     H250161   0.094   7.732   6.490  1.2614  0.3868  0.8292
 7988SOL    OH250162   1.877   7.435   1.521  0.1365  0.3104 -0.0931
 7988SOL     H150163   1.881   7.513   1.576  0.2723  0.0082  0.3238
 7988SOL     H250164   1.789   7.400   1.536  0.3457 -0.0450  0.3044
 7989SOL    OH250165   6.257   0.129   7.841  0.2925 -0.1501 -0.3427
 7989SOL     H150166   6.303   0.166   7.916 -1.2248  0.0625  0.5187
 7989SOL     H250167   6.251   0.201   7.779 -0.7680  0.4586  0.4446
 7990SOL    OH250168   2.564   5.860   7.981  0.3383  0.5961  0.1669
 7990SOL     H150169   2.628   5.917   8.025  0.5121 -0.1668  0.9083
 7990SOL     H250170   2.616   5.785   7.952 -0.4186 -0.5480  1.7325
 7991SOL    OH250171   6.422   0.692   8.244  0.1349 -0.2622  0.1897
 7991SOL     H150172   6.355   0.744   8.199 -2.1286 -1.1474  2.4036
 7991SOL     H250173   6.496   0.691   8.184 -0.6032  3.5588 -0.9135
 7992SOL    OH250174   2.118   1.381   6.815  0.4137 -0.8346 -0.3538
 7992SOL     H150175   2.091   1.435   6.741 -0.5199 -1.0763 -0.2037
 7992SOL     H250176   2.036   1.360   6.860  0.8405 -1.7571  0.0084
 7993SOL    OH250177   2.981   7.220   1.126  0.5418  0.5543 -0.5325
 7993SOL     H150178   3.070   7.234   1.157 -0.0032  2.9141  0.0328
 7993SOL     H250179   2.988   7.219   1.031  1.7866 -3.7293 -0.4991
 7994SOL    OH250180   0.143   6.331   0.450 -0.5365 -0.0217 -0.6811
 7994SOL     H150181   0.234   6.306   0.468 -0.4667 -0.0092 -1.0188
 7994SOL     H250182   0.149   6.401   0.385 -0.7692  0.3367 -0.3178
 7995SOL    OH250183   2.235   3.353   8.165  0.3847  0.0700  0.1267
 7995SOL     H150184   2.213   3.426   8.107  1.0356 -0.7709 -1.2033
 7995SOL     H250185   2.151   3.310   8.183  0.5660 -1.6330 -2.8833
 7996SOL    OH250186   0.468   7.368   6.285  0.3583 -0.2608 -0.2825
 7996SOL     H150187   0.549   7.403   6.247 -0.1343 -0.3413 -1.4403
 7996SOL     H250188   0.434   7.307   6.219 -1.4583  0.9377 -0.5032
 7997SOL    OH250189   7.177   4.295   8.272  0.2777  0.1641 -0.0791
 7997SOL     H150190   7.130   4.367   8.228 -1.2709  1.0135  2.8715
 7997SOL     H250191   7.211   4.242   8.200 -2.1240  1.5577 -2.3339
 7998SOL    OH250192   1.277   1.886   2.029 -0.1974  0.6999  0.3005
 7998SOL     H150193   1.342   1.890   2.100  0.9264  1.1381 -0.7247
 7998SOL     H250194   1.323   1.924   1.954 -1.0765 -0.5613 -0.8794
 7999SOL    OH250195   3.928   6.041   1.369  0.0685 -0.4276 -0.5459
 7999SOL     H150196   3.984   6.054   1.292  1.1498  0.2835  0.3331
 7999SOL     H250197   3.868   6.116   1.368 -0.8609 -1.1744 -1.4737
 8000SOL    OH250198   3.128   1.178   6.464  0.3448  0.3592 -0.6427
 8000SOL     H150199   3.133   1.255   6.408 -0.1399  1.8598  1.3252
 8000SOL     H250200   3.171   1.205   6.545 -0.1410 -1.3316  0.1925
 8001SOL    OH250201   2.658   1.738   0.982 -0.2243 -0.2769 -0.1020
 8001SOL     H150202   2.573   1.774   0.956  0.7249  0.0521 -2.9069
 8001SOL     H250203   2.661   1.651   0.942  0.7641 -0.2746 -0.0555
 8002SOL    OH250204   3.388   4.913   0.390 -0.3991  0.8174  0.1163
 8002SOL     H150205   3.325   4.922   0.462 -0.2239  0.6557  0.2898
 8002SOL     H250206   3.438   4.995   0.392  2.7368 -1.0396  3.1544
 8003SOL    OH250207   2.286   0.224   6.937 -0.1333 -0.2519 -0.5690
 8003SOL     H150208   2.241   0.166   6.875 -0.1257  0.3143 -1.1031
 8003SOL     H250209   2.215   0.265   6.986 -0.1231 -1.1319  0.1998
 8004SOL    OH250210   6.044   4.022   3.285 -0.3290 -0.2477  0.1070
 8004SOL     H150211   6.075   3.933   3.302 -0.2206 -0.6027 -1.8430
 8004SOL     H250212   5.975   4.011   3.220  0.9238  1.2324 -1.5121
 8005SOL    OH250213   5.367   4.532   8.045 -0.4207 -0.5883 -0.0710
 8005SOL     H150214   5.327   4.445   8.047 -2.6932  0.4397  1.1617
 8005SOL     H250215   5.388   4.548   7.953 -3.4915 -0.9205 -0.8763
 8006SOL    OH250216   6.150   1.345   5.993 -0.1925  0.0469  0.0077
 8006SOL     H150217   6.185   1.402   5.924 -0.1564  1.2152  0.9829
 8006SOL     H250218   6.102   1.404   6.051  2.3355 -0.4293  2.6997
 8007SOL    OH250219   7.595   0.537   0.715  0.0372 -0.2900  0.5203
 8007SOL     H150220   7.629   0.465   0.664  1.3887  1.8964 -1.7643
 8007SOL     H250221   7.501   0.540   0.695  0.5842  0.6444 -2.0195
 8008SOL    OH250222   3.525   4.162   1.510 -0.0835  0.6400  0.4499
 8008SOL     H150223   3.587   4.094   1.537  0.2670  0.7727 -0.0087
 8008SOL     H250224   3.561   4.196   1.428 -1.7488 -0.5826 -0.8343
 8009SOL    OH250225   3.614   3.910   1.320  0.8931 -0.4360  0.1125
 8009SOL     H150226   3.598   3.868   1.404  1.1379 -0.2822  0.2378
 8009SOL     H250227   3.638   4.000   1.342  1.8900 -0.6449 -0.0597
 8010SOL    OH250228   3.547   6.523   6.107 -0.4345  0.3070  0.0173
 8010SOL     H150229   3.558   6.617   6.098 -2.4141  0.4659 -0.8422
 8010SOL     H250230   3.544   6.490   6.017  0.5276 -0.6211  0.3095
 8011SOL    OH250231   0.734   4.370   6.257 -0.4482 -0.2767  0.6137
 8011SOL     H150232   0.730   4.352   6.351  1.3087 -0.9292  0.5692
 8011SOL     H250233   0.750   4.464   6.251 -1.0850 -0.1399  0.9416
 8012SOL    OH250234   7.110   5.894   7.643  0.1816 -0.3606 -0.1523
 8012SOL     H150235   7.133   5.977   7.601 -0.4169 -0.0937  0.0395
 8012SOL     H250236   7.014   5.897   7.651  0.0025 -1.8029 -1.6627
 8013SOL    OH250237   2.840   2.660   0.705  0.1445 -0.0600  0.0249
 8013SOL     H150238   2.858   2.574   0.744  0.3932  0.4380  0.9972
 8013SOL     H250239   2.744   2.668   0.710  0.1793  0.0316  0.5975
 8014SOL    OH250240   3.789   0.724   7.226 -0.6294  0.1275 -0.2216
 8014SOL     H150241   3.850   0.653   7.243  1.6474  2.0495 -0.0841
 8014SOL     H250242   3.844   0.802   7.220 -3.2340  2.1637  1.4022
 8015SOL    OH250243   2.223   1.480   6.366  0.2379  0.1226 -0.2882
 8015SOL     H150244   2.230   1.563   6.414  0.0593 -0.8256  1.4246
 8015SOL     H250245   2.159   1.497   6.297  0.2491  1.4185  0.0067
 8016SOL    OH250246   7.520   0.537   7.454  0.3955 -0.0964  0.5120
 8016SOL     H150247   7.597   0.504   7.501  1.9691  0.2217 -1.7531
 8016SOL     H250248   7.539   0.630   7.440  0.0175 -0.2209 -0.8716
 8017SOL    OH250249   4.071   6.544   1.844 -0.4292 -0.3905 -0.5874
 8017SOL     H150250   4.023   6.481   1.897  0.6193 -0.1743  0.6547
 8017SOL     H250251   4.024   6.546   1.760 -1.4386 -1.5781 -0.0686
 8018SOL    OH250252   0.754   5.233   2.748 -0.0476 -0.2247 -0.1727
 8018SOL     H150253   0.694   5.162   2.722  1.7784 -1.0455 -2.2393
 8018SOL     H250254   0.828   5.187   2.789 -0.3515  0.7314  1.4956
 8019SOL    OH250255   2.255   1.757   0.670  0.2925 -0.0314  0.1319
 8019SOL     H150256   2.178   1.809   0.647  0.4602 -0.6505 -1.9014
 8019SOL     H250257   2.219   1.683   0.720 -0.1263  1.0584  1.4815
 8020SOL    OH250258   4.388   7.706   1.101  0.7875 -0.1057  0.3096
 8020SOL     H150259   4.302   7.727   1.064  1.1945 -0.0619 -0.6157
 8020SOL     H250260   4.383   7.613   1.124  0.0329  0.2183  1.5477
 8021SOL    OH250261   0.796   0.372   6.209 -0.3031  0.4647  0.6678
 8021SOL     H150262   0.846   0.324   6.142 -1.8525  1.6931 -1.4316
 8021SOL     H250263   0.818   0.464   6.194 -0.3314  0.7299  2.1571
 8022SOL    OH250264   7.159   7.800   0.121 -0.2319  0.3212  0.5517
 8022SOL     H150265   7.130   7.892   0.115 -1.8468 -0.0112  2.7704
 8022SOL     H250266   7.145   7.765   0.033 -0.8407  1.8465  0.0251
 8023SOL    OH250267   6.751   3.848   1.882  0.6651  0.3997 -0.8389
 8023SOL     H150268   6.813   3.819   1.815  1.2861  2.3550 -1.1457
 8023SOL     H250269   6.734   3.940   1.861  0.5349  0.9316  1.4107
 8024SOL    OH250270   4.210   1.487   0.621  0.2541  0.0065 -0.1503
 8024SOL     H150271   4.198   1.540   0.700  1.1215  0.0645 -0.0506
 8024SOL     H250272   4.283   1.529   0.575  0.2236 -0.4510 -0.6241
 8025SOL    OH250273   1.718   3.525   0.069  0.2073 -0.1829 -0.3105
 8025SOL     H150274   1.698   3.546  -0.023  0.2808  0.0551 -0.2727
 8025SOL     H250275   1.637   3.547   0.116 -0.0269 -0.8451 -0.3957
 8026SOL    OH250276   1.269   1.768   6.487 -0.1759  0.0798  0.1334
 8026SOL     H150277   1.304   1.781   6.399 -2.0196  0.6309 -0.5429
 8026SOL     H250278   1.196   1.829   6.493 -0.1742 -0.0757  2.0015
 8027SOL    OH250279   4.139   1.871   1.513 -0.1443 -0.0469  0.3015
 8027SOL     H150280   4.116   1.943   1.454 -0.2313 -1.1370 -1.0477
 8027SOL     H250281   4.233   1.879   1.527 -0.3365  0.9631  1.0436
 8028SOL    OH250282   6.247   7.116   6.755  0.5315  0.4599  0.1030
 8028SOL     H150283   6.183   7.146   6.820 -0.8893 -1.3464 -0.4331
 8028SOL     H250284   6.206   7.040   6.714  2.2869  0.3390 -1.4887
 8029SOL    OH250285   2.225   6.588   1.222 -0.4789  0.2693  0.0528
 8029SOL     H150286   2.292   6.548   1.166 -0.0915  1.4651 -0.3314
 8029SOL     H250287   2.196   6.516   1.278  1.0311 -0.2934  0.1314
 8030SOL    OH250288   1.257   4.586   7.046  0.6045  1.3455  0.4761
 8030SOL     H150289   1.282   4.661   7.099  1.0293  1.1166  0.5984
 8030SOL     H250290   1.337   4.560   7.001  0.2287  1.5840 -0.3342
 8031SOL    OH250291   5.591   3.832   0.849 -0.6027  0.2510 -0.5930
 8031SOL     H150292   5.554   3.919   0.833  2.7481  2.0980  1.2191
 8031SOL     H250293   5.574   3.816   0.942  1.2239  0.1814 -0.2661
 8032SOL    OH250294   1.305   5.900   8.267 -0.5698  0.5837  0.6780
 8032SOL     H150295   1.315   5.926   8.176  0.2342 -1.2397  0.2259
 8032SOL     H250296   1.221   5.853   8.269 -0.4052  0.2988  0.8127
 8033SOL    OH250297   6.959   6.945   7.528  0.5269 -0.1018  0.8392
 8033SOL     H150298   6.952   6.885   7.454  0.8489 -2.3149  2.5628
 8033SOL     H250299   6.901   7.018   7.505  0.6579 -0.7088 -1.6001
 8034SOL    OH250300   1.998   4.205   1.947  0.8603  0.5285  0.5393
 8034SOL     H150301   1.970   4.171   2.031  0.3302 -1.5984 -0.4690
 8034SOL     H250302   2.090   4.182   1.940  0.3437 -1.3097 -0.4169
 8035SOL    OH250303   0.570   1.009   7.421  0.0046 -0.5358 -1.0380
 8035SOL     H150304   0.651   0.960   7.405 -0.8399 -2.6367  0.8944
 8035SOL     H250305   0.502   0.942   7.426 -1.2664  0.8514  1.1443
 8036SOL    OH250306   0.414   3.652   1.950 -0.1051  0.0445 -0.7162
 8036SOL     H150307   0.418   3.650   2.045 -0.7400 -2.2868 -0.7013
 8036SOL     H250308   0.504   3.634   1.922  0.2108  1.3523 -0.5816
 8037SOL    OH250309   7.202   1.898   1.921 -0.0268 -0.1341  0.7310
 8037SOL     H150310   7.238   1.965   1.979 -1.1108 -0.0260  1.3008
 8037SOL     H250311   7.107   1.903   1.936 -0.1080 -1.8589  0.8755
 8038SOL    OH250312   0.725   5.143   7.345  0.2167  0.5837 -0.3934
 8038SOL     H150313   0.726   5.050   7.367 -1.9261  0.0466 -2.4265
 8038SOL     H250314   0.679   5.185   7.419  0.1265 -0.1343 -0.0442
 8039SOL    OH250315   7.547   4.026   0.600  0.2948 -0.1363 -0.2688
 8039SOL     H150316   7.464   4.043   0.645  1.3601  0.2181  1.6010
 8039SOL     H250317   7.597   4.106   0.610  0.9504 -0.4108 -1.2477
 8040SOL    OH250318   2.869   2.378   0.721 -0.0046 -0.3398  0.1071
 8040SOL     H150319   2.789   2.351   0.766  1.8285 -3.8295  1.4334
 8040SOL     H250320   2.873   2.324   0.643  1.5177 -0.8754  0.5289
 8041SOL    OH250321   1.630   2.479   1.532  0.1423 -0.2213  0.1829
 8041SOL     H150322   1.601   2.446   1.447 -0.4083  0.3318  0.1535
 8041SOL     H250323   1.674   2.562   1.512  2.5680 -1.4971  0.1251
 8042SOL    OH250324   2.963   2.102   0.870  0.3502  0.2773  0.1955
 8042SOL     H150325   2.871   2.081   0.882  0.1908  0.4939 -0.6237
 8042SOL     H250326   3.002   2.022   0.835 -0.0915  1.0399 -2.1271
 8043SOL    OH250327   3.663   3.783   8.064 -0.0860 -0.3137 -0.4250
 8043SOL     H150328   3.652   3.862   8.012  1.1106  1.3640  1.8304
 8043SOL     H250329   3.757   3.775   8.077 -0.3921 -0.5450  1.7350
 8044SOL    OH250330   4.782   2.107   6.101  0.5864  0.3686 -0.3533
 8044SOL     H150331   4.828   2.023   6.092  0.9337  0.4123  0.8887
 8044SOL     H250332   4.841   2.161   6.153  0.1850  1.2629 -0.8160
 8045SOL    OH250333   2.911   6.119   6.888 -0.3460  0.4810 -0.2055
 8045SOL     H150334   2.969   6.190   6.914  1.6837 -1.0723 -0.3624
 8045SOL     H250335   2.887   6.076   6.970  0.7606 -0.4049 -0.3382
 8046SOL    OH250336   3.759   0.476   8.284 -0.2466 -0.5656  0.7558
 8046SOL     H150337   3.761   0.413   8.211  0.7999 -0.7663  0.9588
 8046SOL     H250338   3.679   0.527   8.269 -0.0004 -0.5589 -0.5744
 8047SOL    OH250339   5.251   3.323   2.262 -0.1449 -0.1422 -0.3495
 8047SOL     H150340   5.157   3.306   2.269 -0.1242 -0.7680 -1.4335
 8047SOL     H250341   5.275   3.360   2.347 -1.7275  1.7918 -0.7002
 8048SOL    OH250342   2.473   2.690   1.041  0.1333  0.4805  0.0989
 8048SOL     H150343   2.524   2.677   1.121 -1.6616 -1.6065  0.9810
 8048SOL     H250344   2.441   2.780   1.046  2.9780  1.5545 -0.0813
 8049SOL    OH250345   4.658   0.151   0.989  0.9150 -0.2485  0.5874
 8049SOL     H150346   4.655   0.135   0.894  0.9776 -0.4995  0.6280
 8049SOL     H250347   4.750   0.138   1.012  0.9677  0.1786  0.6191
 8050SOL    OH250348   0.413   2.917   1.413  0.5380  1.2104 -0.1303
 8050SOL     H150349   0.322   2.938   1.431  0.7473  1.6998  0.3817
 8050SOL     H250350   0.410   2.832   1.369 -0.1835  1.3713 -0.3960
 8051SOL    OH250351   2.468   1.670   6.980  0.6054 -0.3255 -0.1431
 8051SOL     H150352   2.420   1.592   7.009 -0.5370  0.2132 -0.5221
 8051SOL     H250353   2.413   1.706   6.910  1.8345  0.0302 -0.9291
 8052SOL    OH250354   4.835   1.648   8.156  0.0916  0.1477 -0.3110
 8052SOL     H150355   4.768   1.714   8.141 -0.3562  0.0455  1.1904
 8052SOL     H250356   4.904   1.669   8.093 -0.3374  1.6341 -0.2993
 8053SOL    OH250357   3.545   6.322   6.896  0.5280  0.2909  0.1464
 8053SOL     H150358   3.517   6.280   6.977  0.7773  1.1451  0.6825
 8053SOL     H250359   3.641   6.327   6.904  0.5296  0.5992 -0.0918
 8054SOL    OH250360   7.053   6.879   2.373 -0.5599 -0.1640 -0.0319
 8054SOL     H150361   6.987   6.933   2.331 -1.1001 -0.4636  0.4128
 8054SOL     H250362   7.055   6.910   2.464 -1.8213 -1.7577  0.5558
 8055SOL    OH250363   1.870   3.215   7.684 -0.4597  0.0409  0.3707
 8055SOL     H150364   1.844   3.200   7.774 -2.6422  1.4281  0.0262
 8055SOL     H250365   1.955   3.260   7.690  0.0491 -1.0773  1.6663
 8056SOL    OH250366   2.670   0.424   8.052 -0.4106 -0.7709 -0.0475
 8056SOL     H150367   2.628   0.357   8.105 -0.7779  0.3482  1.1283
 8056SOL     H250368   2.598   0.478   8.019 -0.1678 -1.3604 -1.5569
 8057SOL    OH250369   7.323   1.476   0.689 -0.0306  0.6111 -0.1389
 8057SOL     H150370   7.255   1.448   0.628  0.0959  1.0251 -0.4810
 8057SOL     H250371   7.402   1.483   0.634  0.4317 -0.4525  0.3696
 8058SOL    OH250372   7.270   4.632   0.373  0.4803  0.1823  0.0750
 8058SOL     H150373   7.309   4.586   0.299  2.2313 -1.3331  1.9004
 8058SOL     H250374   7.294   4.724   0.359  1.8017 -0.2589 -0.6030
 8059SOL    OH250375   1.059   3.835   0.110  0.2273 -0.3891  0.0588
 8059SOL     H150376   1.114   3.910   0.088 -1.1511 -0.0307 -2.4663
 8059SOL     H250377   1.092   3.764   0.054  0.5394 -1.2235  1.2962
 8060SOL    OH250378   5.003   1.916   8.241 -0.2187 -0.2216  0.2820
 8060SOL     H150379   4.991   1.857   8.166  1.3729 -1.5626  1.0226
 8060SOL     H250380   4.918   1.916   8.286 -1.1530  0.5279 -1.4637
 8061SOL    OH250381   6.361   7.799   6.313  0.5798 -0.3329  0.6251
 8061SOL     H150382   6.435   7.860   6.318  0.9985 -0.7980  0.0778
 8061SOL     H250383   6.320   7.804   6.400  0.3867  1.0074  0.4766
 8062SOL    OH250384   1.266   4.528   2.297  0.5226 -0.3255  0.1836
 8062SOL     H150385   1.231   4.615   2.318  0.3769 -0.0532 -1.1239
 8062SOL     H250386   1.352   4.525   2.338  0.2844  0.2196  0.7193
 8063SOL    OH250387   5.610   7.183   7.201 -0.0640 -0.0902  0.1208
 8063SOL     H150388   5.695   7.209   7.167  0.0049 -0.2680  0.1575
 8063SOL     H250389   5.592   7.098   7.159 -0.6229  0.3653 -0.5719
 8064SOL    OH250390   7.272   7.338   7.245  0.4304  0.0119  1.0269
 8064SOL     H150391   7.280   7.422   7.291 -1.5573  0.0401  1.3384
 8064SOL     H250392   7.237   7.361   7.159  1.1966 -0.3672  0.6079
 8065SOL    OH250393   0.515   0.864   1.374 -0.0784 -0.1967 -0.1639
 8065SOL     H150394   0.507   0.932   1.441 -0.9315 -0.9622  0.5320
 8065SOL     H250395   0.584   0.895   1.316  1.0942  0.1824  1.4207
 8066SOL    OH250396   7.646   6.787   0.934  0.0383 -0.4135 -0.2500
 8066SOL     H150397   7.717   6.742   0.979  0.2225 -1.3088 -1.4193
 8066SOL     H250398   7.676   6.796   0.843 -0.4353  1.1363 -0.2647
 8067SOL    OH250399   2.249   1.065   1.997  0.1614 -0.0805 -0.5149
 8067SOL     H150400   2.282   1.031   1.914 -0.8332 -0.0885 -0.9248
 8067SOL     H250401   2.301   1.022   2.064  1.6074  0.6317 -1.1704
 8068SOL    OH250402   3.478   5.748   7.345  0.4773  0.1137 -0.0248
 8068SOL     H150403   3.476   5.827   7.400  2.5743  0.7544 -0.8341
 8068SOL     H250404   3.440   5.680   7.401 -2.5784  1.9310  0.2341
 8069SOL    OH250405   1.015   1.107   2.115 -0.1202  0.4649  0.5258
 8069SOL     H150406   1.037   1.183   2.170  1.8245  0.7259 -0.5599
 8069SOL     H250407   1.072   1.037   2.148  1.4439  0.7582 -1.4500
 8070SOL    OH250408   0.449   0.257   2.014  0.4147  0.0065 -0.0395
 8070SOL     H150409   0.458   0.235   2.107  0.0128 -0.2406 -0.0569
 8070SOL     H250410   0.537   0.279   1.985  0.4855  0.4254  0.4898
 8071SOL    OH250411   6.184   4.658   0.095 -1.1169  0.1266 -0.5335
 8071SOL     H150412   6.266   4.688   0.056 -1.0913  0.3997 -0.2699
 8071SOL     H250413   6.137   4.738   0.118 -0.9565 -0.0331  0.3687
 8072SOL    OH250414   1.145   7.839   6.931 -0.5455  0.1747 -0.7568
 8072SOL     H150415   1.229   7.793   6.931 -0.5892  0.0869 -1.1783
 8072SOL     H250416   1.168   7.932   6.941 -0.5443 -0.0675  1.6098
 8073SOL    OH250417   1.821   0.993   0.109 -0.3208  0.1040 -0.3241
 8073SOL     H150418   1.808   1.001   0.203  0.5582 -0.3226 -0.1617
 8073SOL     H250419   1.739   0.957   0.076 -0.5887  0.1547  0.2953
 8074SOL    OH250420   0.994   1.831   6.057 -0.4203  0.8984  0.0507
 8074SOL     H150421   1.071   1.842   6.113 -1.0192  1.5982  0.7514
 8074SOL     H250422   0.965   1.920   6.038  0.0241  0.6677 -1.7340
 8075SOL    OH250423   3.636   7.387   5.747 -0.0564  0.0241 -0.0189
 8075SOL     H150424   3.550   7.354   5.772 -0.5449  1.2118 -0.1025
 8075SOL     H250425   3.696   7.346   5.808 -0.6257 -1.1631 -0.2368
 8076SOL    OH250426   7.283   1.731   7.422  0.6983  0.4136 -0.0065
 8076SOL     H150427   7.315   1.709   7.509 -0.0195  1.0736  0.4384
 8076SOL     H250428   7.233   1.812   7.435 -1.7788 -0.9898 -0.5214
 8077SOL    OH250429   0.281   7.865   0.967 -0.3797 -0.0505 -0.0241
 8077SOL     H150430   0.310   7.787   0.919  3.4523 -0.7910  3.1746
 8077SOL     H250431   0.186   7.867   0.954 -0.5005 -4.8103 -0.9105
 8078SOL    OH250432   1.303   1.597   0.216 -0.1833  0.0565  0.6454
 8078SOL     H150433   1.307   1.511   0.257  0.2167  0.3123  1.1456
 8078SOL     H250434   1.377   1.645   0.252  0.9089 -0.1012 -1.3056
 8079SOL    OH250435   4.918   2.270   0.985  0.3385  0.2338 -0.5420
 8079SOL     H150436   4.904   2.189   1.035 -2.3541  1.5739  0.9619
 8079SOL     H250437   4.906   2.245   0.894 -1.5857 -0.8762 -0.0112
 8080SOL    OH250438   0.421   5.851   7.961 -0.3214 -0.5334 -0.4473
 8080SOL     H150439   0.398   5.940   7.987 -2.1868 -1.1490  0.1622
 8080SOL     H250440   0.371   5.795   8.021 -0.5764 -1.9801 -1.9648
 8081SOL    OH250441   1.215   6.404   6.567  0.3074  0.2055  0.3907
 8081SOL     H150442   1.230   6.451   6.649 -1.2691  2.2726 -0.4426
 8081SOL     H250443   1.274   6.446   6.505  0.1844 -0.1236  0.0499
 8082SOL    OH250444   1.873   3.096   6.751 -0.0210  0.2269 -0.1068
 8082SOL     H150445   1.815   3.159   6.793 -0.6059 -0.7794  0.6029
 8082SOL     H250446   1.932   3.067   6.820 -1.2801 -1.7696  0.1464
 8083SOL    OH250447   4.469   4.397   0.615 -0.1623 -0.3906  0.0432
 8083SOL     H150448   4.527   4.438   0.552  0.1556  1.1210  1.2751
 8083SOL     H250449   4.495   4.305   0.616  2.0755  0.2126  0.4089
 8084SOL    OH250450   0.395   2.032   1.765 -0.1802 -0.2345 -0.4595
 8084SOL     H150451   0.469   2.001   1.817  0.5451 -0.1060 -1.4031
 8084SOL     H250452   0.433   2.095   1.704 -1.0578 -0.1971 -0.9764
 8085SOL    OH250453   4.733   6.245   0.758 -0.0525 -0.4113 -0.5780
 8085SOL     H150454   4.662   6.235   0.821  0.3505 -0.1318 -0.0846
 8085SOL     H250455   4.790   6.171   0.774 -0.3320 -0.7469 -1.1112
 8086SOL    OH250456   4.004   3.216   0.840  0.0540  0.7410 -0.1559
 8086SOL     H150457   4.090   3.228   0.800  0.0881 -1.1708 -0.7056
 8086SOL     H250458   4.021   3.207   0.933  0.2935  1.8575 -0.0853
 8087SOL    OH250459   7.133   4.892   1.867 -0.0570  0.6898 -0.9872
 8087SOL     H150460   7.216   4.846   1.864 -0.1667  0.4399 -0.3106
 8087SOL     H250461   7.090   4.871   1.784 -1.2344 -2.5517  0.3767
 8088SOL    OH250462   2.937   0.390   8.264  0.1884 -0.2770  0.2607
 8088SOL     H150463   2.921   0.385   8.170  1.8900  0.8320 -0.1074
 8088SOL     H250464   2.887   0.466   8.293 -0.7550 -0.9237  0.3620
 8089SOL    OH250465   7.389   1.175   0.820  0.4013  0.3184 -0.2524
 8089SOL     H150466   7.329   1.111   0.858  2.3233 -0.7412  1.0983
 8089SOL     H250467   7.337   1.255   0.810 -1.2622 -0.6359  0.6618
 8090SOL    OH250468   6.119   5.641   0.038 -0.2734  0.2867 -0.4309
 8090SOL     H150469   6.039   5.608  -0.003 -0.2831  0.4462 -0.5438
 8090SOL     H250470   6.158   5.565   0.080 -1.1091  0.4486  0.6586
 8091SOL    OH250471   5.610   6.920   7.079 -0.2494 -0.3072  1.0692
 8091SOL     H150472   5.571   6.833   7.081 -1.3468  0.1229 -0.6857
 8091SOL     H250473   5.592   6.953   6.991  0.1950  1.6672  1.6835
 8092SOL    OH250474   4.726   3.906   0.784 -0.0696 -0.3558  0.2482
 8092SOL     H150475   4.764   3.989   0.756 -0.0273 -0.6902 -0.7029
 8092SOL     H250476   4.660   3.886   0.718  0.9789 -1.8401 -0.3881
 8093SOL    OH250477   4.295   4.700   1.620 -0.4298  0.4360  0.2030
 8093SOL     H150478   4.210   4.725   1.656  0.2703  0.0420  2.1464
 8093SOL     H250479   4.358   4.723   1.688  1.0094  0.4814 -1.1192
 8094SOL    OH250480   6.515   2.396   7.370  0.7330  0.0942  0.5316
 8094SOL     H150481   6.571   2.320   7.355  1.5507  0.7094  0.4118
 8094SOL     H250482   6.476   2.414   7.284  0.2362 -0.4273  0.6491
 8095SOL    OH250483   2.394   7.322   8.220 -0.4005  0.4896 -0.4464
 8095SOL     H150484   2.472   7.265   8.215  0.1096  1.1261  0.1428
 8095SOL     H250485   2.326   7.265   8.256 -0.0474  0.0976 -0.3839
 8096SOL    OH250486   6.501   3.926   0.120  0.4089 -0.5066 -0.1575
 8096SOL     H150487   6.469   3.992   0.182  1.0432 -1.1195  0.8296
 8096SOL     H250488   6.578   3.966   0.080  0.1675 -0.2280 -0.3469
 8097SOL    OH250489   5.923   4.728   1.912  0.1913  0.3465 -0.2615
 8097SOL     H150490   5.931   4.672   1.834  0.5570  1.5723 -1.1218
 8097SOL     H250491   5.902   4.814   1.877 -3.0010  0.2171  1.1939
 8098SOL    OH250492   1.881   0.173   0.331 -0.2982  0.6425 -0.2584
 8098SOL     H150493   1.914   0.238   0.268  1.1126  0.3671  0.1836
 8098SOL     H250494   1.927   0.092   0.309  1.2123  0.8582  1.9320
 8099SOL    OH250495   0.304   2.659   7.497  0.3567 -0.0994  0.7169
 8099SOL     H150496   0.257   2.742   7.494  0.5549 -0.0175 -0.4917
 8099SOL     H250497   0.304   2.628   7.406  0.5036 -1.2967  1.1146
 8100SOL    OH250498   5.372   4.798   2.461 -0.3857 -0.5706  0.6466
 8100SOL     H150499   5.342   4.741   2.391  0.1107  4.1291 -3.7066
 8100SOL     H250500   5.467   4.782   2.466 -0.2953 -0.3479 -0.3422
 8101SOL    OH250501   0.082   5.905   6.785  0.1618  0.7480 -0.2998
 8101SOL     H150502   0.158   5.956   6.813 -1.6497  0.7240  5.1251
 8101SOL     H250503   0.117   5.817   6.771  1.2506  0.8022  1.8389
 8102SOL    OH250504   3.678   3.646   1.671 -0.7733  0.2932 -0.0873
 8102SOL     H150505   3.754   3.658   1.728  0.2389 -0.9501 -1.1385
 8102SOL     H250506   3.624   3.580   1.716 -0.7678  0.4833  0.1991
 8103SOL    OH250507   7.583   7.621   7.871 -0.2508 -0.0287 -0.3465
 8103SOL     H150508   7.608   7.572   7.949 -0.0582  1.6486  0.6830
 8103SOL     H250509   7.656   7.681   7.856 -1.1155  0.9702 -0.6717
 8104SOL    OH250510   7.077   1.161   0.792  0.1835  0.0084 -0.6080
 8104SOL     H150511   7.071   1.218   0.869 -1.3445 -0.5017 -0.3248
 8104SOL     H250512   7.127   1.085   0.822  1.3375  0.7354 -0.6953
 8105SOL    OH250513   1.916   0.434   7.655 -0.2012  0.3473  0.0066
 8105SOL     H150514   1.885   0.487   7.581  0.7994 -0.5671 -1.0870
 8105SOL     H250515   1.858   0.358   7.656  0.2222  0.0141 -0.2924
 8106SOL    OH250516   1.157   3.695   2.494 -0.0023 -0.0325  0.2171
 8106SOL     H150517   1.190   3.627   2.551 -1.6127  0.1819  1.4460
 8106SOL     H250518   1.192   3.777   2.530 -0.1515  0.0129  0.2585
 8107SOL    OH250519   1.547   4.150   0.472  0.3670  0.2500 -0.8194
 8107SOL     H150520   1.520   4.078   0.529  1.6427 -1.0583 -1.8235
 8107SOL     H250521   1.591   4.212   0.530  0.2974 -0.3394 -0.1364
 8108SOL    OH250522   3.693   7.052   7.007 -0.0819  0.1742  0.8138
 8108SOL     H150523   3.670   6.983   6.946  5.7418  0.3232 -1.8838
 8108SOL     H250524   3.646   7.129   6.976 -1.0554 -0.9333 -0.4716
 8109SOL    OH250525   3.262   2.888   2.475  0.1638 -0.3193 -0.0422
 8109SOL     H150526   3.283   2.933   2.393 -0.2212  0.1419  0.1147
 8109SOL     H250527   3.279   2.952   2.544  0.0167 -0.5479  0.2125
 8110SOL    OH250528   1.501   0.485   0.732  0.1313  0.1788 -0.3652
 8110SOL     H150529   1.585   0.439   0.724  0.2239  0.7268 -3.0584
 8110SOL     H250530   1.440   0.419   0.764  1.6570 -0.1105  2.1018
 8111SOL    OH250531   4.361   6.897   7.146  0.0974  0.2758 -0.5805
 8111SOL     H150532   4.346   6.969   7.207  2.1539  0.2921 -0.0511
 8111SOL     H250533   4.369   6.819   7.201  0.7371  0.1058 -0.9026
 8112SOL    OH250534   0.975   5.482   1.821 -0.1467  0.2913 -1.0405
 8112SOL     H150535   1.011   5.420   1.757  0.2224  1.5106 -2.0247
 8112SOL     H250536   0.890   5.507   1.783 -0.7230 -0.3189 -0.1781
 8113SOL    OH250537   5.646   7.194   0.710 -0.4906 -0.7553  0.4318
 8113SOL     H150538   5.615   7.133   0.777 -0.2485 -1.2143  0.1286
 8113SOL     H250539   5.629   7.149   0.627 -2.1482  0.3971  0.0965
 8114SOL    OH250540   0.149   5.177   1.634 -0.3932  0.7037 -0.0755
 8114SOL     H150541   0.194   5.205   1.714 -1.0741  0.2030  0.4933
 8114SOL     H250542   0.056   5.175   1.658 -0.4125 -1.7052 -0.1835
 8115SOL    OH250543   3.578   2.515   0.465 -0.3897  0.5695 -0.1330
 8115SOL     H150544   3.653   2.525   0.406  1.1500 -1.7054  1.3764
 8115SOL     H250545   3.561   2.421   0.467  0.3246  0.4524  3.8955
 8116SOL    OH250546   5.877   0.562   0.226 -0.1728 -0.1233 -0.7173
 8116SOL     H150547   5.784   0.582   0.214 -0.1427  0.7126  0.3281
 8116SOL     H250548   5.904   0.619   0.298  1.5841  0.9198 -2.1732
 8117SOL    OH250549   7.824   5.357   1.529 -0.0373 -0.4148 -0.2638
 8117SOL     H150550   7.793   5.267   1.535  1.3626 -0.8728  0.4960
 8117SOL     H250551   7.861   5.375   1.615  0.6125  0.5342 -0.7340
 8118SOL    OH250552   7.144   1.291   2.715 -0.4057  0.3868 -0.2092
 8118SOL     H150553   7.145   1.206   2.757 -0.5962  1.0876  1.2567
 8118SOL     H250554   7.110   1.275   2.627  0.6574 -1.2069 -0.3399
 8119SOL    OH250555   3.965   4.399   6.357  0.4214  0.5741 -0.0886
 8119SOL     H150556   4.022   4.401   6.434  0.1704 -1.3914  0.1804
 8119SOL     H250557   3.878   4.420   6.392  0.3306 -0.1871  0.1572
 8120SOL    OH250558   0.841   7.190   7.669  0.8301  0.0585  0.2182
 8120SOL     H150559   0.811   7.120   7.611  2.9398 -0.2227 -0.5763
 8120SOL     H250560   0.772   7.257   7.664 -0.2921 -1.1405 -0.4980
 8121SOL    OH250561   1.750   7.349   1.287  0.3407  0.2132  0.0810
 8121SOL     H150562   1.802   7.399   1.349 -0.6085  0.3400  0.7694
 8121SOL     H250563   1.659   7.367   1.310 -0.0369 -2.1524  0.6467
 8122SOL    OH250564   3.369   4.313   0.168  0.3119  0.5428 -0.6668
 8122SOL     H150565   3.322   4.233   0.190  1.8967 -0.6375 -1.5558
 8122SOL     H250566   3.451   4.284   0.129  1.4839  2.5805  0.1721
 8123SOL    OH250567   3.466   7.980   1.485  0.3633 -0.3486  0.3872
 8123SOL     H150568   3.413   7.925   1.427 -0.0122  1.0415 -0.6073
 8123SOL     H250569   3.554   7.978   1.446  0.5374 -0.9078  0.8117
 8124SOL    OH250570   3.924   4.601   0.445 -0.0330  0.2912 -0.6115
 8124SOL     H150571   4.007   4.647   0.431 -0.3398  1.4241  1.0635
 8124SOL     H250572   3.897   4.629   0.533 -1.0016 -1.9273 -0.1811
 8125SOL    OH250573   2.732   3.046   2.522 -0.0290  0.0482 -0.2894
 8125SOL     H150574   2.752   3.051   2.615  1.3278  1.0064 -0.6164
 8125SOL     H250575   2.689   3.129   2.502  1.3060  0.6251 -0.8682
 8126SOL    OH250576   0.681   0.031   0.400  0.1096  0.4319  0.2926
 8126SOL     H150577   0.690   0.074   0.485  0.6719  0.4848  0.2063
 8126SOL     H250578   0.760  -0.022   0.392 -0.9279 -1.2061  0.7342
 8127SOL    OH250579   2.960   4.829   0.645 -0.1170  0.5709 -0.2310
 8127SOL     H150580   2.945   4.809   0.552  1.2305  2.7269 -0.9558
 8127SOL     H250581   2.925   4.917   0.656  0.1853  0.5166  1.2004
 8128SOL    OH250582   7.523   3.286   0.112 -0.9128  0.4194  0.0156
 8128SOL     H150583   7.588   3.281   0.182  0.6217 -0.8914 -1.4616
 8128SOL     H250584   7.547   3.363   0.061 -1.1225  0.4997  0.0345
 8129SOL    OH250585   1.865   1.982   7.336 -0.5719 -0.1830 -0.4986
 8129SOL     H150586   1.801   2.039   7.378 -1.4756 -1.3073 -0.3202
 8129SOL     H250587   1.813   1.910   7.299  0.5975 -1.2344 -0.1501
 8130SOL    OH250588   5.657   7.777   6.875  0.1331 -0.1247 -0.0809
 8130SOL     H150589   5.638   7.857   6.925 -0.1109 -0.6685  0.6929
 8130SOL     H250590   5.741   7.795   6.832  0.0351  0.5873  0.0206
 8131SOL    OH250591   5.562   5.821   6.592 -0.2259  0.1798  0.3166
 8131SOL     H150592   5.653   5.820   6.621 -0.6274  1.3665  1.7089
 8131SOL     H250593   5.554   5.745   6.535  1.8303  0.5036 -0.4445
 8132SOL    OH250594   7.325   6.547   2.499 -0.2974 -0.1964  0.0111
 8132SOL     H150595   7.313   6.526   2.591 -1.6844  0.0659 -0.1026
 8132SOL     H250596   7.392   6.615   2.498 -1.9148  1.4261  0.9958
 8133SOL    OH250597   7.435   2.586   7.499 -0.0498  0.3377 -0.1231
 8133SOL     H150598   7.491   2.659   7.524  0.5230 -0.4931  1.0729
 8133SOL     H250599   7.380   2.570   7.575 -0.5710 -0.1086 -0.5893
 8134SOL    OH250600   1.887   4.648   8.243  0.2847 -0.0673 -0.1008
 8134SOL     H150601   1.918   4.600   8.166  2.3590  0.5093  0.3611
 8134SOL     H250602   1.898   4.741   8.220 -1.2161  0.1517  0.0249
 8135SOL    OH250603   2.491   3.452   6.653 -0.2483  0.1467 -0.1239
 8135SOL     H150604   2.502   3.525   6.591  0.6737  0.2199  0.1103
 8135SOL     H250605   2.573   3.451   6.702 -1.6114  1.1608  2.2385
 8136SOL    OH250606   0.331   6.463   6.616 -0.2749  0.0643 -1.1168
 8136SOL     H150607   0.360   6.416   6.695 -0.7119  0.7836 -0.5182
 8136SOL     H250608   0.410   6.474   6.564  0.2503  0.6869 -0.1969
 8137SOL    OH250609   3.133   5.060   6.706  0.7121 -0.1217 -0.2176
 8137SOL     H150610   3.178   5.026   6.784  0.2118 -2.4539 -0.9195
 8137SOL     H250611   3.167   5.007   6.634  0.3292  1.2700 -1.4461
 8138SOL    OH250612   6.651   3.558   2.131 -0.0464 -0.0017 -0.2576
 8138SOL     H150613   6.587   3.512   2.077  0.5340  0.0597 -0.9986
 8138SOL     H250614   6.647   3.649   2.102 -0.5490  0.2479  0.5885
 8139SOL    OH250615   7.246   7.867   0.743 -0.1051  0.1568 -0.0959
 8139SOL     H150616   7.166   7.857   0.692 -0.4977 -1.7945  0.8593
 8139SOL     H250617   7.221   7.925   0.816  0.2736  2.3516 -1.6429
 8140SOL    OH250618   1.037   2.989   0.753  0.1796  0.1474  0.1287
 8140SOL     H150619   0.996   2.918   0.703  1.7296 -0.3041 -0.5424
 8140SOL     H250620   1.130   2.966   0.756  0.4477  1.3052  1.3414
 8141SOL    OH250621   1.603   6.741   8.094  0.0848 -0.2724 -0.1034
 8141SOL     H150622   1.574   6.715   8.007 -2.0265  1.0548  0.1588
 8141SOL     H250623   1.656   6.668   8.125  1.7353 -0.2963 -2.8992
 8142SOL    OH250624   6.126   5.837   7.577 -0.3117 -0.2944 -0.5342
 8142SOL     H150625   6.067   5.911   7.566 -0.9402 -0.6754  0.2378
 8142SOL     H250626   6.151   5.813   7.487  0.6247  1.4153 -0.7388
 8143SOL    OH250627   4.460   6.515   1.048 -0.6565 -0.4627 -0.4969
 8143SOL     H150628   4.553   6.503   1.066 -0.8134 -1.9314 -0.5954
 8143SOL     H250629   4.433   6.587   1.105  0.1863 -1.0647  0.6720
 8144SOL    OH250630   4.596   5.255   1.733 -0.2299  1.1784  0.1922
 8144SOL     H150631   4.557   5.171   1.707 -0.5022  1.5382 -0.5864
 8144SOL     H250632   4.691   5.240   1.728 -0.2780  1.0484 -0.4102
 8145SOL    OH250633   2.247   4.530   5.600 -0.4249  0.0748  0.3078
 8145SOL     H150634   2.319   4.508   5.659  0.1166 -0.6587 -0.5946
 8145SOL     H250635   2.194   4.450   5.596 -1.2433  0.5728  0.8785
 8146SOL    OH250636   2.888   1.370   0.435 -0.1281 -0.4136  0.6614
 8146SOL     H150637   2.833   1.339   0.506 -0.5483  3.2596  2.0610
 8146SOL     H250638   2.827   1.413   0.375  0.8225  0.8175  0.5690
 8147SOL    OH250639   6.892   6.773   7.306 -0.4432  0.2901 -0.0028
 8147SOL     H150640   6.871   6.824   7.228 -0.8169  0.8319  0.4534
 8147SOL     H250641   6.852   6.687   7.289 -2.3862  1.0690  0.5149
 8148SOL    OH250642   5.897   5.748   0.605 -0.0372  0.1664 -0.0454
 8148SOL     H150643   5.936   5.702   0.530 -2.6649  0.1512 -1.4600
 8148SOL     H250644   5.923   5.695   0.681 -0.4388 -1.9659 -1.3433
 8149SOL    OH250645   0.972   0.780   1.142 -0.3577  0.0658 -0.0321
 8149SOL     H150646   0.930   0.837   1.078  1.7292 -0.1213 -1.6519
 8149SOL     H250647   1.066   0.798   1.131  0.3568 -3.4764 -0.4453
 8150SOL    OH250648   5.378   1.673   2.771 -0.5172 -0.3311  0.0279
 8150SOL     H150649   5.416   1.760   2.779 -0.3789 -0.5502  1.9642
 8150SOL     H250650   5.331   1.674   2.687 -0.9401  1.7472  0.2865
 8151SOL    OH250651   1.052   0.127   0.286  0.4306  0.1797 -0.2295
 8151SOL     H150652   1.144   0.099   0.291  1.3434  3.0590  0.1838
 8151SOL     H250653   1.006   0.069   0.346  2.3277  0.0170  1.1346
 8152SOL    OH250654   3.978   3.031   6.822  0.4714  0.4951 -0.5577
 8152SOL     H150655   3.994   3.080   6.902  0.6408 -1.2659  0.5300
 8152SOL     H250656   3.995   3.093   6.751 -0.4998  2.3006  0.7758
 8153SOL    OH250657   7.855   4.289   7.460 -0.5206 -0.1874 -0.1016
 8153SOL     H150658   7.783   4.234   7.428  1.2052 -2.1191 -0.7253
 8153SOL     H250659   7.812   4.372   7.484 -2.3921  0.2351 -4.4045
 8154SOL    OH250660   0.187   2.316   7.898  0.1823  0.3221  0.2730
 8154SOL     H150661   0.253   2.284   7.959 -0.5270  0.9120  1.3476
 8154SOL     H250662   0.103   2.293   7.938 -0.2899  1.0024 -0.3065
 8155SOL    OH250663   3.582   1.688   8.047  0.3460  0.3434  0.0593
 8155SOL     H150664   3.600   1.679   7.954 -0.6015  1.8585 -0.2876
 8155SOL     H250665   3.569   1.598   8.078  1.9931 -0.2722 -0.9747
 8156SOL    OH250666   7.319   2.516   1.356 -0.1122 -0.8239 -0.2608
 8156SOL     H150667   7.369   2.454   1.302 -0.4134 -2.5282  1.3617
 8156SOL     H250668   7.229   2.507   1.326  0.1016  0.1029 -1.1966
 8157SOL    OH250669   4.698   5.540   8.058  0.1875 -0.0415  0.3328
 8157SOL     H150670   4.716   5.482   8.131  2.3241  1.6741  1.2380
 8157SOL     H250671   4.771   5.527   7.998  0.9925  2.0504  0.8068
 8158SOL    OH250672   2.971   0.709   6.318  0.7618 -0.4095  0.2975
 8158SOL     H150673   2.985   0.798   6.286 -1.1171 -0.4129 -0.6290
 8158SOL     H250674   3.022   0.704   6.398  1.1658  1.3980  0.1808
 8159SOL    OH250675   7.090   2.345   0.792 -0.7854 -0.3802  0.1538
 8159SOL     H150676   7.132   2.261   0.773 -0.7547 -0.2723 -0.2643
 8159SOL     H250677   7.142   2.409   0.744 -1.1319 -0.1894  0.0284
 8160SOL    OH250678   3.013   3.080   0.735  0.1759 -1.1880 -0.4383
 8160SOL     H150679   2.940   3.018   0.725  0.4997 -1.8787  1.2005
 8160SOL     H250680   3.090   3.024   0.747  0.5276 -0.4917  0.7009
 8161SOL    OH250681   2.442   3.143   7.282 -0.1857  0.1491  0.8625
 8161SOL     H150682   2.415   3.163   7.371  1.8199 -0.1711  1.5448
 8161SOL     H250683   2.405   3.056   7.264  0.3777 -0.2696  1.7660
 8162SOL    OH250684   0.692   4.943   6.818 -0.3036  0.4144 -0.2766
 8162SOL     H150685   0.783   4.931   6.847 -0.3048 -1.5530 -1.0275
 8162SOL     H250686   0.698   4.953   6.723 -1.2326 -5.2815 -1.1142
 8163SOL    OH250687   0.293   2.088   6.983  0.2745 -0.1208 -0.1652
 8163SOL     H150688   0.205   2.116   6.957  0.7372  2.0811  0.5144
 8163SOL     H250689   0.348   2.164   6.964  1.5896 -0.5637  1.7849
 8164SOL    OH250690   1.903   2.942   1.455 -0.5461 -0.0612 -0.2837
 8164SOL     H150691   1.883   2.954   1.548 -0.2258  1.7578 -0.4298
 8164SOL     H250692   1.979   2.884   1.454 -0.6496 -0.2137  0.5848
 8165SOL    OH250693   4.293   4.791   6.217 -0.4561 -0.6564  0.0181
 8165SOL     H150694   4.271   4.706   6.253  0.5425 -0.9284  0.0133
 8165SOL     H250695   4.370   4.819   6.267 -0.2754 -0.1338 -0.5405
 8166SOL    OH250696   3.998   1.950   1.111 -0.5163  0.0802  0.2606
 8166SOL     H150697   3.906   1.925   1.098 -0.4558 -0.6012  1.0888
 8166SOL     H250698   4.026   1.983   1.026 -1.4038 -0.1336 -0.1224
 8167SOL    OH250699   3.431   4.262   2.463  0.5872  0.0194 -0.5207
 8167SOL     H150700   3.402   4.305   2.382 -0.5143 -0.7724 -0.5605
 8167SOL     H250701   3.357   4.270   2.523  0.2676 -2.0074 -0.6106
 8168SOL    OH250702   5.523   6.572   6.546  0.0095 -0.4360 -0.2108
 8168SOL     H150703   5.471   6.495   6.568 -0.3670  0.1147  0.8576
 8168SOL     H250704   5.586   6.541   6.482  1.0917 -2.0751  1.5975
 8169SOL    OH250705   6.344   2.982   0.544  0.2411  0.5142  0.0590
 8169SOL     H150706   6.431   2.942   0.541 -0.2057 -0.6695  1.7926
 8169SOL     H250707   6.291   2.930   0.483  0.4086  0.3168  0.0807
 8170SOL    OH250708   3.171   5.633   6.584 -0.2484 -0.7528 -0.4407
 8170SOL     H150709   3.131   5.571   6.645  2.4555 -1.7548  0.3921
 8170SOL     H250710   3.128   5.616   6.500 -1.5150 -1.8227  0.4158
 8171SOL    OH250711   7.653   2.740   0.069 -0.2231  0.0718  0.4853
 8171SOL     H150712   7.564   2.725   0.101  0.0704 -0.5681  1.0174
 8171SOL     H250713   7.709   2.690   0.128  0.7079  2.3439  1.6075
 8172SOL    OH250714   1.016   3.223   7.453  0.0178 -0.2229 -0.0436
 8172SOL     H150715   1.021   3.217   7.357 -3.2712 -2.5076 -0.1431
 8172SOL     H250716   1.032   3.134   7.484 -0.3713  0.2221  1.4790
 8173SOL    OH250717   3.338   7.182   6.514  0.3208 -0.2735  0.0909
 8173SOL     H150718   3.261   7.126   6.512  0.7453 -0.8868  0.5353
 8173SOL     H250719   3.317   7.249   6.579 -0.9795  1.2802 -1.8508
 8174SOL    OH250720   3.556   7.769   1.077 -0.2562  0.2764  0.4665
 8174SOL     H150721   3.590   7.708   1.012  1.6001 -1.0114  2.5947
 8174SOL     H250722   3.633   7.805   1.121 -1.4550 -0.9984  3.8510
 8175SOL    OH250723   3.854   5.661   7.013  0.2477  0.1753  0.7081
 8175SOL     H150724   3.822   5.626   7.096 -1.0377 -1.7448 -0.5562
 8175SOL     H250725   3.786   5.639   6.949  1.4386  1.1674 -0.9513
 8176SOL    OH250726   3.688   7.806   5.936  0.3440  0.0162 -0.0659
 8176SOL     H150727   3.701   7.804   5.841  0.7116 -1.0820  0.0031
 8176SOL     H250728   3.737   7.883   5.965  1.3957 -0.4334 -0.6080
 8177SOL    OH250729   0.699   1.781   7.342  0.1914 -0.3011  0.1347
 8177SOL     H150730   0.736   1.700   7.375 -1.9082 -0.9657  0.9099
 8177SOL     H250731   0.753   1.803   7.266 -0.4617 -3.5429 -1.3668
 8178SOL    OH250732   5.991   2.296   6.029 -0.0638 -0.6665 -0.0259
 8178SOL     H150733   5.941   2.371   5.996  1.1499  1.3236  2.5065
 8178SOL     H250734   5.930   2.251   6.087 -0.0327 -0.2654  0.3179
 8179SOL    OH250735   5.237   7.686   0.208  0.2021  0.2530 -1.0901
 8179SOL     H150736   5.173   7.681   0.137 -1.8299 -0.5686  0.7470
 8179SOL     H250737   5.254   7.595   0.232  2.4289  0.4341 -1.8401
 8180SOL    OH250738   0.790   5.613   1.667 -0.0843  0.1918 -0.6056
 8180SOL     H150739   0.760   5.700   1.693 -1.8146 -0.6787  0.4672
 8180SOL     H250740   0.717   5.578   1.615 -1.5647 -2.4148  2.9973
 8181SOL    OH250741   7.316   2.698   7.898 -0.0995  0.4804  0.3365
 8181SOL     H150742   7.333   2.621   7.844  0.6407  1.0950 -0.3079
 8181SOL     H250743   7.221   2.695   7.915  0.2893 -1.8245  2.2471
 8182SOL    OH250744   5.299   6.706   8.048  0.0211 -0.0605  0.3954
 8182SOL     H150745   5.348   6.783   8.020 -1.5428  1.0139  0.5328
 8182SOL     H250746   5.318   6.639   7.983  1.7380  0.2957  0.5109
 8183SOL    OH250747   3.768   1.342   5.538 -0.1671  0.1425  0.4696
 8183SOL     H150748   3.782   1.364   5.445 -2.4861 -0.1905  0.0125
 8183SOL     H250749   3.687   1.387   5.561 -0.8071 -1.5924  1.7184
 8184SOL    OH250750   2.974   7.321   0.023 -0.3122  0.4464  0.2107
 8184SOL     H150751   3.025   7.363  -0.046  1.6256 -2.4025 -0.1995
 8184SOL     H250752   3.038   7.304   0.093 -1.2262 -0.9225  0.7412
 8185SOL    OH250753   5.948   3.154   0.665  0.0996 -0.6445 -0.3946
 8185SOL     H150754   6.002   3.179   0.740  2.1644  0.3915 -2.1821
 8185SOL     H250755   5.978   3.066   0.642  0.7826 -0.2346 -1.1235
 8186SOL    OH250756   0.174   6.678   7.017 -0.3154  0.2354 -0.6074
 8186SOL     H150757   0.247   6.628   7.053 -0.7698  0.3800  0.5694
 8186SOL     H250758   0.200   6.700   6.928  0.1489 -1.5722 -0.9343
 8187SOL    OH250759   6.113   2.039   0.038 -0.3844 -0.0582  0.0276
 8187SOL     H150760   6.019   2.027   0.054 -0.5831 -1.3661 -1.9648
 8187SOL     H250761   6.117   2.110  -0.027  0.1518  1.6416  1.8653
 8188SOL    OH250762   2.278   7.853   1.564 -0.2837  0.0560 -0.2120
 8188SOL     H150763   2.281   7.757   1.570 -1.4983  0.0885  1.0417
 8188SOL     H250764   2.202   7.871   1.508  0.4525  0.2796 -1.1630
 8189SOL    OH250765   5.483   1.594   2.224  0.1889  0.0879 -0.3327
 8189SOL     H150766   5.571   1.559   2.219 -0.6017 -1.8218 -1.2959
 8189SOL     H250767   5.488   1.678   2.178  1.3052 -0.4015 -1.1287
 8190SOL    OH250768   7.420   6.151   2.123 -0.2068  0.0964  0.1963
 8190SOL     H150769   7.397   6.200   2.202  1.4263  0.5848  0.3991
 8190SOL     H250770   7.430   6.061   2.152 -0.5096  0.1204  0.3700
 8191SOL    OH250771   6.556   5.966   6.650  0.1084 -0.2025 -0.9071
 8191SOL     H150772   6.619   6.010   6.706 -2.3939  3.0903 -0.4754
 8191SOL     H250773   6.561   5.874   6.675  2.4029  0.4801  1.3582
 8192SOL    OH250774   2.025   6.802   5.918  0.7975  0.4683 -0.1310
 8192SOL     H150775   2.015   6.733   5.983  0.0984 -0.6164 -1.3688
 8192SOL     H250776   1.996   6.762   5.836  0.7483  2.1069 -0.9322
 8193SOL    OH250777   1.146   2.418   6.855 -0.0739  0.6191  0.6022
 8193SOL     H150778   1.202   2.390   6.928  0.0711  2.4408  1.2225
 8193SOL     H250779   1.057   2.401   6.886  0.0687 -0.4899  0.3948
 8194SOL    OH250780   4.433   3.814   2.108  0.3148  0.4281  0.3219
 8194SOL     H150781   4.424   3.864   2.188  1.2034 -0.7640  1.1852
 8194SOL     H250782   4.517   3.842   2.071  0.2735  0.4024  0.2065
 8195SOL    OH250783   2.629   5.895   6.670 -0.1446 -0.1702  0.0561
 8195SOL     H150784   2.679   5.830   6.621 -0.6655 -0.7329  0.2603
 8195SOL     H250785   2.560   5.922   6.609 -0.7443 -0.8112  0.4411
 8196SOL    OH250786   6.589   2.660   6.504  0.4181 -0.1705  0.4448
 8196SOL     H150787   6.564   2.682   6.593 -2.8821  0.2788 -0.5598
 8196SOL     H250788   6.623   2.741   6.467  0.1810  0.0539  0.7244
 8197SOL    OH250789   2.421   0.168   1.469 -0.2434 -0.6365  0.1668
 8197SOL     H150790   2.406   0.188   1.377 -0.4123 -0.2194  0.2835
 8197SOL     H250791   2.398   0.076   1.477 -0.2034 -0.6812 -0.2134
 8198SOL    OH250792   4.618   3.723   7.936 -0.4844 -0.6106  0.3230
 8198SOL     H150793   4.545   3.689   7.884 -0.3283 -1.4581  0.6530
 8198SOL     H250794   4.627   3.815   7.908 -0.9839 -0.8049 -0.4842
 8199SOL    OH250795   6.356   3.813   3.032  0.8371  0.3427  0.7483
 8199SOL     H150796   6.265   3.822   3.057  1.3799  1.2696  2.4496
 8199SOL     H250797   6.373   3.886   2.973  0.1149 -0.6609 -0.7439
 8200SOL    OH250798   6.493   2.136   0.354 -0.0082 -0.1281 -0.1764
 8200SOL     H150799   6.430   2.199   0.388  1.1159  1.3507 -0.7848
 8200SOL     H250800   6.463   2.118   0.264 -0.4028 -0.5805  0.0414
 8201SOL    OH250801   2.732   6.417   0.665  0.4619 -0.1850 -0.0841
 8201SOL     H150802   2.700   6.486   0.606 -0.7761 -0.9177 -0.2894
 8201SOL     H250803   2.804   6.376   0.617  1.5231  1.2769  0.2413
 8202SOL    OH250804   7.326   6.352   0.975 -0.3186  0.4248  0.7116
 8202SOL     H150805   7.287   6.292   0.912  0.1875 -0.3443  1.1296
 8202SOL     H250806   7.326   6.437   0.930 -0.9440  0.1007  0.0879
 8203SOL    OH250807   4.920   5.790   0.132  0.0009  0.3899  0.1066
 8203SOL     H150808   4.922   5.885   0.137 -0.3446  0.3550  0.8917
 8203SOL     H250809   4.834   5.765   0.166  0.1594 -0.2094  0.0849
 8204SOL    OH250810   1.020   5.971   0.866 -0.7577  0.1528  0.4375
 8204SOL     H150811   1.076   6.049   0.857  0.7525 -0.8041  1.2455
 8204SOL     H250812   0.932   6.006   0.875 -0.2658  1.7243 -0.5808
 8205SOL    OH250813   5.227   7.945   6.558  0.3705 -0.0167 -0.0872
 8205SOL     H150814   5.206   7.901   6.640 -0.2437 -0.5005 -0.4990
 8205SOL     H250815   5.165   7.908   6.494  0.4350  0.7957 -0.6318
 8206SOL    OH250816   7.801   5.738   7.506  0.0907  0.5696 -0.2073
 8206SOL     H150817   7.730   5.776   7.558 -0.7188 -0.3475 -0.6255
 8206SOL     H250818   7.759   5.706   7.426  0.8236 -0.7410 -0.0950
 8207SOL    OH250819   7.396   6.144   7.987 -0.2450 -0.2388  0.3014
 8207SOL     H150820   7.424   6.227   7.948 -1.2423  0.3508  0.7988
 8207SOL     H250821   7.311   6.127   7.947 -1.0372  0.0933  1.7749
 8208SOL    OH250822   5.394   7.270   0.478 -0.6422  0.6404  0.0741
 8208SOL     H150823   5.355   7.217   0.548 -0.5408  1.2144  0.5651
 8208SOL     H250824   5.479   7.229   0.462 -1.8038 -1.2001 -1.6597
 8209SOL    OH250825   5.267   4.062   7.809  0.1606 -0.2849 -0.2886
 8209SOL     H150826   5.314   4.036   7.730 -1.4934  0.7778 -1.6548
 8209SOL     H250827   5.177   4.076   7.780 -0.0284  2.2260  1.3104
 8210SOL    OH250828   6.434   1.605   7.695  0.0583  0.3429 -0.0657
 8210SOL     H150829   6.467   1.546   7.763  0.3871  0.7946  0.1671
 8210SOL     H250830   6.347   1.631   7.727 -1.0062 -1.7173 -1.2122
 8211SOL    OH250831   1.491   4.972   7.392  0.0953  0.6919  0.0146
 8211SOL     H150832   1.549   4.925   7.451 -0.0189 -0.0029 -0.4159
 8211SOL     H250833   1.453   5.042   7.446 -1.0291 -0.7487  1.1215
 8212SOL    OH250834   5.226   0.520   6.461  0.6927  0.0087 -0.0664
 8212SOL     H150835   5.193   0.431   6.474  0.9379  0.1184  1.4177
 8212SOL     H250836   5.300   0.527   6.521  0.0064  1.5552  0.6357
 8213SOL    OH250837   4.672   3.938   1.479 -0.1658 -0.0419  0.0481
 8213SOL     H150838   4.738   4.007   1.478 -0.1689 -0.0366 -0.8231
 8213SOL     H250839   4.652   3.924   1.571  1.3839 -0.3481  0.3527
 8214SOL    OH250840   1.022   5.105   7.603 -1.1077 -0.0929  0.1678
 8214SOL     H150841   1.031   5.012   7.623  0.1454 -0.2790 -1.1545
 8214SOL     H250842   1.008   5.108   7.509 -2.6206  0.9791  0.4169
 8215SOL    OH250843   2.718   6.665   0.540  0.4731 -0.5259  0.5708
 8215SOL     H150844   2.758   6.683   0.625  0.8027  1.9122 -0.0668
 8215SOL     H250845   2.781   6.697   0.476 -0.1627 -1.5464 -0.5968
 8216SOL    OH250846   4.321   0.775   0.470 -0.1083  0.0882  0.1279
 8216SOL     H150847   4.298   0.866   0.486  2.1964  0.9004 -0.9006
 8216SOL     H250848   4.372   0.777   0.389  0.1737 -2.0917  0.2169
 8217SOL    OH250849   3.412   0.854   8.086 -0.0259  0.5074 -0.0033
 8217SOL     H150850   3.429   0.888   7.998 -0.6778  2.5732  0.6546
 8217SOL     H250851   3.494   0.866   8.133  0.3891 -0.7941 -0.3687
 8218SOL    OH250852   1.644   5.927   6.197  0.3704  0.1157  0.1602
 8218SOL     H150853   1.579   5.978   6.246  2.0278  1.7963  0.6560
 8218SOL     H250854   1.719   5.922   6.255  1.2164 -0.5767 -0.9876
 8219SOL    OH250855   6.461   3.682   1.095  0.1324 -0.0703 -0.1238
 8219SOL     H150856   6.430   3.617   1.032 -2.6740  0.3468  0.7451
 8219SOL     H250857   6.433   3.766   1.058  0.6133  0.3570  0.4813
 8220SOL    OH250858   3.509   2.563   0.981 -0.3553 -0.4234  0.5716
 8220SOL     H150859   3.441   2.631   0.981 -0.1657 -0.1434  3.5929
 8220SOL     H250860   3.571   2.591   0.914 -2.6672 -0.1358 -1.5069
 8221SOL    OH250861   2.234   2.066   1.027 -0.1282  0.9300 -0.1233
 8221SOL     H150862   2.151   2.018   1.029  0.1750  0.4153  0.1829
 8221SOL     H250863   2.209   2.156   1.007 -0.7016  0.6380 -0.7359
 8222SOL    OH250864   1.114   5.830   8.016 -0.3427  0.1385  0.0992
 8222SOL     H150865   1.072   5.913   8.037 -1.6132 -0.4478 -0.1057
 8222SOL     H250866   1.087   5.812   7.926 -0.6461 -0.8425  0.3861
 8223SOL    OH250867   2.805   4.100   2.679  0.0172 -0.4345 -0.0481
 8223SOL     H150868   2.768   4.014   2.699 -0.7525  0.3868  2.2028
 8223SOL     H250869   2.730   4.158   2.676  0.4553  0.0724 -2.2985
 8224SOL    OH250870   6.024   7.476   7.413  0.0399  0.2757 -0.1440
 8224SOL     H150871   6.008   7.554   7.465 -2.2855 -0.9579  1.0715
 8224SOL     H250872   6.088   7.504   7.347 -0.2716  3.0099  0.6410
 8225SOL    OH250873   1.851   2.911   8.092  0.0090 -0.4746 -0.0575
 8225SOL     H150874   1.822   2.991   8.048  0.6129  0.2144  0.8058
 8225SOL     H250875   1.946   2.915   8.089  0.0792 -2.4879 -2.4040
 8226SOL    OH250876   5.806   2.147   0.072 -0.8644 -0.1071  0.3692
 8226SOL     H150877   5.744   2.208   0.032 -1.7612 -0.4281  1.2745
 8226SOL     H250878   5.810   2.174   0.164 -0.0995 -0.4484  0.4385
 8227SOL    OH250879   6.317   7.843   1.033 -0.5143 -0.0126  0.2555
 8227SOL     H150880   6.274   7.785   1.096 -2.2125  0.5548 -0.3655
 8227SOL     H250881   6.409   7.840   1.058 -0.5254 -3.0579  0.1961
 8228SOL    OH250882   3.401   4.534   1.288  0.3150 -0.2028  0.0561
 8228SOL     H150883   3.306   4.535   1.276  0.1972 -1.3034  0.7802
 8228SOL     H250884   3.435   4.510   1.202 -0.1571 -1.3822  0.1831
 8229SOL    OH250885   6.201   6.829   0.535  0.2803 -0.3015 -0.4715
 8229SOL     H150886   6.291   6.801   0.555  0.1050 -0.4173  0.1712
 8229SOL     H250887   6.184   6.793   0.448 -0.0890 -2.5840  0.5113
 8230SOL    OH250888   7.021   3.177   0.985 -0.0618  0.0319  0.1692
 8230SOL     H150889   6.964   3.250   0.961 -1.0754 -1.1847 -1.1960
 8230SOL     H250890   7.108   3.205   0.957 -0.7339 -0.0336 -2.0629
 8231SOL    OH250891   5.528   6.329   8.147  0.1767  0.6761  0.2383
 8231SOL     H150892   5.480   6.396   8.194 -0.0934 -1.4603  3.1261
 8231SOL     H250893   5.460   6.274   8.107  0.3007 -0.0750  1.0531
 8232SOL    OH250894   3.525   6.432   1.444  0.6494 -0.0162  0.3509
 8232SOL     H150895   3.585   6.358   1.435  1.1974  0.5141 -0.4164
 8232SOL     H250896   3.439   6.392   1.454  0.7319 -0.7277 -1.7137
 8233SOL    OH250897   7.237   7.893   1.184  0.0116 -0.2733 -0.4008
 8233SOL     H150898   7.222   7.871   1.276  1.0024  1.1651  0.1133
 8233SOL     H250899   7.323   7.858   1.164 -0.6659 -1.5654 -1.1117
 8234SOL    OH250900   4.876   4.345   8.043  0.5409 -0.2274 -0.3224
 8234SOL     H150901   4.887   4.385   8.129 -0.2913 -1.2112  0.2620
 8234SOL     H250902   4.904   4.412   7.981  0.5912  0.7025  0.6938
 8235SOL    OH250903   6.344   4.192   1.286 -0.1920  0.8396  0.0617
 8235SOL     H150904   6.425   4.168   1.240 -0.4618  0.6427 -0.3139
 8235SOL     H250905   6.274   4.155   1.232 -0.5195  0.7214  0.5621
 8236SOL    OH250906   7.275   6.259   2.353 -0.5058 -0.7037 -0.3274
 8236SOL     H150907   7.291   6.318   2.427 -1.2196  1.0526 -1.5456
 8236SOL     H250908   7.235   6.182   2.393 -0.6462  0.1014  1.1609
 8237SOL    OH250909   3.239   4.887   0.623  0.2520 -0.1731  0.2609
 8237SOL     H150910   3.302   4.862   0.691 -0.9159 -0.6394  1.1860
 8237SOL     H250911   3.154   4.867   0.661 -0.6357  2.9502  0.0851
 8238SOL    OH250912   3.341   7.825   0.931 -0.4061 -0.2585  0.1023
 8238SOL     H150913   3.277   7.864   0.992 -1.6685  2.8786 -3.0532
 8238SOL     H250914   3.424   7.832   0.978 -1.2800  2.4047  1.3857
 8239SOL    OH250915   4.059   3.801   7.343 -0.0675 -0.8639 -0.2895
 8239SOL     H150916   4.059   3.730   7.278  2.0123 -1.3913  0.2696
 8239SOL     H250917   4.112   3.870   7.303 -1.7320  0.2411 -0.6451
 8240SOL    OH250918   6.049   7.315   7.730 -0.1783 -0.4311  0.7636
 8240SOL     H150919   6.082   7.403   7.748 -0.6893  0.2447 -1.5537
 8240SOL     H250920   6.125   7.267   7.697 -0.7642  0.2823 -1.7205
 8241SOL    OH250921   0.393   6.102   7.582  0.1799  0.0749  0.0642
 8241SOL     H150922   0.315   6.151   7.555  0.7081  1.9610  1.8450
 8241SOL     H250923   0.466   6.150   7.544  0.5611 -0.8805 -0.4143
 8242SOL    OH250924   2.572   6.292   2.414  0.0833  0.5830  0.4805
 8242SOL     H150925   2.500   6.242   2.453  0.6311 -0.1152  0.6050
 8242SOL     H250926   2.560   6.381   2.445  0.0456  0.1937  1.5784
 8243SOL    OH250927   1.088   7.801   0.051 -0.5021 -0.3835 -0.4222
 8243SOL     H150928   1.024   7.839  -0.010 -1.7570  2.7037  2.6548
 8243SOL     H250929   1.042   7.728   0.092 -0.8864 -0.2456 -0.5984
 8244SOL    OH250930   6.869   6.515   7.869 -0.1221 -0.1800 -0.0675
 8244SOL     H150931   6.854   6.610   7.867  1.8825  0.2280  1.9422
 8244SOL     H250932   6.781   6.477   7.865 -1.3039  1.9031  3.6270
 8245SOL    OH250933   0.992   2.223   0.762  0.3112  0.2413  0.1503
 8245SOL     H150934   0.934   2.251   0.833  1.2184 -0.6371  1.2588
 8245SOL     H250935   1.056   2.294   0.754 -0.0640  0.5503 -0.0892
 8246SOL    OH250936   2.650   0.712   5.893  0.3972 -0.6015 -0.1280
 8246SOL     H150937   2.586   0.667   5.838  0.7520  1.8920 -2.7290
 8246SOL     H250938   2.675   0.648   5.959 -1.9307 -2.8863 -1.3870
 8247SOL    OH250939   6.442   0.190   8.077 -0.6497 -0.2789 -0.1094
 8247SOL     H150940   6.429   0.098   8.098 -0.7148 -0.0135  1.0203
 8247SOL     H250941   6.485   0.227   8.154  2.2077 -0.0281 -1.7287
 8248SOL    OH250942   3.779   1.350   8.101 -0.5732  0.0280 -0.2817
 8248SOL     H150943   3.704   1.363   8.042 -1.6032  1.0984  1.2134
 8248SOL     H250944   3.774   1.423   8.162  1.6074 -0.0027 -0.0336
 8249SOL    OH250945   0.579   7.554   1.795 -0.1026  0.3048 -0.0419
 8249SOL     H150946   0.566   7.643   1.827 -2.2164  0.4959 -1.3501
 8249SOL     H250947   0.637   7.564   1.719 -2.3844  0.8794 -1.7415
 8250SOL    OH250948   0.856   6.728   6.606  0.1167  0.0725 -0.3348
 8250SOL     H150949   0.781   6.670   6.615  0.4768 -0.3190  0.2538
 8250SOL     H250950   0.819   6.815   6.593 -0.4310 -0.2129 -0.6551
 8251SOL    OH250951   0.293   1.475   2.117 -0.5107  0.4140 -0.0650
 8251SOL     H150952   0.326   1.515   2.037  1.7213 -1.0165  0.0792
 8251SOL     H250953   0.283   1.382   2.095  2.0961 -0.3787  1.8386
 8252SOL    OH250954   5.322   5.874   6.752  0.0130  0.0062  0.4357
 8252SOL     H150955   5.319   5.827   6.835  0.2969 -0.2933  0.2805
 8252SOL     H250956   5.388   5.826   6.701  0.7972  0.9853  0.5252
 8253SOL    OH250957   1.568   0.067   0.290 -0.1879  0.0318  0.1612
 8253SOL     H150958   1.614   0.142   0.327 -0.6769  0.4408 -0.0543
 8253SOL     H250959   1.613  -0.009   0.326  0.5767  0.4297  0.0453
 8254SOL    OH250960   3.630   5.107   0.600  0.2842 -0.0551  0.2169
 8254SOL     H150961   3.551   5.112   0.653  0.2077 -1.4637  0.2440
 8254SOL     H250962   3.678   5.032   0.635  1.5969  0.7338  0.1473
 8255SOL    OH250963   4.998   7.758   1.636 -0.7328 -0.2987 -0.1558
 8255SOL     H150964   4.924   7.778   1.693  0.1147  1.9416  0.1829
 8255SOL     H250965   5.063   7.826   1.655  1.1836 -1.8610 -0.8906
 8256SOL    OH250966   3.184   2.514   2.088 -0.6778 -0.0975 -0.1265
 8256SOL     H150967   3.113   2.574   2.106  0.6046  1.1846  0.7364
 8256SOL     H250968   3.181   2.450   2.159 -0.0450  0.8222  0.7305
 8257SOL    OH250969   3.016   3.230   8.288 -0.3192 -0.5280  0.2770
 8257SOL     H150970   3.001   3.310   8.238 -0.9370 -1.4163 -0.9873
 8257SOL     H250971   3.111   3.219   8.289 -0.3150 -0.6336 -0.9191
 8258SOL    OH250972   2.746   3.460   0.837  0.4096 -0.3272  0.6246
 8258SOL     H150973   2.676   3.418   0.787  0.1187  0.4921  0.3358
 8258SOL     H250974   2.719   3.449   0.929  0.4927 -1.0421  0.5622
 8259SOL    OH250975   4.245   0.833   7.139  0.2389  0.2223  0.0852
 8259SOL     H150976   4.325   0.779   7.136  0.8096  0.9994  0.9119
 8259SOL     H250977   4.266   0.909   7.086 -0.3523 -0.0823 -0.5873
 8260SOL    OH250978   4.811   6.579   7.588  0.1313 -0.3718 -0.1382
 8260SOL     H150979   4.830   6.651   7.649  0.1733  0.1799 -0.7955
 8260SOL     H250980   4.892   6.567   7.539  0.8444 -2.3678  1.4720
 8261SOL    OH250981   6.293   3.224   6.373  0.2156 -0.5483 -0.3471
 8261SOL     H150982   6.326   3.216   6.284 -0.1095 -0.7621 -0.4514
 8261SOL     H250983   6.297   3.318   6.392 -1.5616 -0.2497 -1.3157
 8262SOL    OH250984   6.109   7.708   0.556 -0.1460  0.3887  0.2168
 8262SOL     H150985   6.136   7.795   0.528  0.5678  0.7144  1.8494
 8262SOL     H250986   6.139   7.650   0.487  2.7470  1.0030  0.8855
 8263SOL    OH250987   6.275   6.729   6.663  0.1759 -0.1715  0.5497
 8263SOL     H150988   6.249   6.704   6.752 -2.0513  0.4679  0.1147
 8263SOL     H250989   6.242   6.658   6.608  1.1302 -0.3289  0.1687
 8264SOL    OH250990   4.413   5.950   7.864 -0.3853 -0.2325 -0.3569
 8264SOL     H150991   4.487   6.009   7.854 -0.6023  0.0648 -0.2264
 8264SOL     H250992   4.358   5.992   7.931 -1.5416  0.4441 -1.7017
 8265SOL    OH250993   4.336   2.847   7.870  0.3139 -0.1212  0.2742
 8265SOL     H150994   4.414   2.833   7.924  1.3322  0.7633 -0.9348
 8265SOL     H250995   4.356   2.804   7.787 -0.7071 -0.3526  0.1411
 8266SOL    OH250996   3.767   0.141   6.813  0.8529 -0.0634 -0.6549
 8266SOL     H150997   3.758   0.048   6.835 -0.2005  0.2131  0.1879
 8266SOL     H250998   3.858   0.161   6.832  1.2448 -1.0721 -1.4321
 8267SOL    OH250999   6.377   5.838   0.494 -0.3793  0.6992 -0.5563
 8267SOL     H151000   6.337   5.754   0.473  0.6803 -0.1364  0.6526
 8267SOL     H251001   6.416   5.868   0.412 -0.9968  0.1426 -1.0518
 8268SOL    OH251002   3.997   6.542   1.600  0.0626 -0.4040  0.0874
 8268SOL     H151003   3.942   6.504   1.531  0.5179 -0.4435 -0.2541
 8268SOL     H251004   4.082   6.500   1.589  0.5191  0.5831 -0.1892
 8269SOL    OH251005   0.751   2.660   6.750 -0.1412 -0.3661  0.2440
 8269SOL     H151006   0.843   2.635   6.756  0.2826  1.0295 -0.3000
 8269SOL     H251007   0.724   2.674   6.841  0.0006 -1.3801  0.4505
 8270SOL    OH251008   2.889   0.051   0.060  0.3101  0.0452 -0.4339
 8270SOL     H151009   2.893  -0.044   0.058  2.2212  0.1004 -0.0154
 8270SOL     H251010   2.894   0.074   0.153  0.8872  0.5922 -0.5960
 8271SOL    OH251011   7.650   1.888   1.362  0.0380 -0.2765  0.2759
 8271SOL     H151012   7.595   1.829   1.414 -0.5809  0.5501  0.5608
 8271SOL     H251013   7.622   1.976   1.387 -0.4292  0.1379 -1.6129
 8272SOL    OH251014   7.457   4.559   1.758  0.2488  1.2695 -0.5232
 8272SOL     H151015   7.401   4.485   1.781  2.0149  0.3643  0.9474
 8272SOL     H251016   7.436   4.577   1.667 -2.6424  1.1345  0.0554
 8273SOL    OH251017   6.496   5.301   7.241 -0.4102  0.1714 -0.3600
 8273SOL     H151018   6.567   5.265   7.295 -0.9296 -2.8514 -1.6245
 8273SOL     H251019   6.538   5.319   7.157 -0.6647  0.4226 -0.4311
 8274SOL    OH251020   7.399   3.483   6.788  0.9425  0.2548 -0.9024
 8274SOL     H151021   7.456   3.408   6.803 -0.1763 -0.6088 -0.9059
 8274SOL     H251022   7.317   3.445   6.756  0.0218  1.4072  0.0467
 8275SOL    OH251023   4.445   3.467   8.126 -0.0641 -0.2091 -0.2079
 8275SOL     H151024   4.526   3.445   8.079 -0.6639  0.2650 -1.4888
 8275SOL     H251025   4.454   3.560   8.145 -1.0996  0.2816 -1.9855
 8276SOL    OH251026   7.125   6.972   7.277  0.9416  0.5672  0.0393
 8276SOL     H151027   7.151   6.947   7.365 -0.4652  1.1904  0.6434
 8276SOL     H251028   7.159   6.902   7.221  1.2738 -0.1577  1.1427
 8277SOL    OH251029   4.681   6.877   0.488 -0.5822  0.4478 -0.3636
 8277SOL     H151030   4.763   6.855   0.443 -0.0888  0.7278  0.3796
 8277SOL     H251031   4.621   6.806   0.467  0.3696 -0.5980  0.4123
 8278SOL    OH251032   4.890   6.046   0.832 -0.1460 -0.0038 -0.0708
 8278SOL     H151033   4.946   6.002   0.767 -0.7549  1.4049 -1.5805
 8278SOL     H251034   4.904   5.996   0.913  2.9396  0.0430 -0.5143
 8279SOL    OH251035   6.851   5.380   7.743 -0.0957 -0.4348  0.2030
 8279SOL     H151036   6.926   5.383   7.803  0.8069 -1.3588 -0.8595
 8279SOL     H251037   6.851   5.466   7.701  0.2791 -0.3825  0.3069
 8280SOL    OH251038   7.580   0.725   1.733  0.6455  1.3821  0.0502
 8280SOL     H151039   7.653   0.674   1.698 -1.6716 -1.8455 -0.2702
 8280SOL     H251040   7.523   0.740   1.657 -2.3572 -2.0853  1.4787
 8281SOL    OH251041   6.417   2.575   8.249 -0.1525 -0.3401  0.1241
 8281SOL     H151042   6.415   2.483   8.278  0.0967 -0.8685 -1.4593
 8281SOL     H251043   6.488   2.614   8.300 -1.5258 -0.5116  2.2391
 8282SOL    OH251044   7.390   2.746   0.944 -0.7346  0.0910  0.3360
 8282SOL     H151045   7.440   2.684   0.890 -0.9758  0.0876  0.1151
 8282SOL     H251046   7.372   2.819   0.886  2.3731  1.8744  1.5119
 8283SOL    OH251047   6.425   5.460   0.366  0.6490  0.3612  0.3366
 8283SOL     H151048   6.350   5.519   0.355 -0.9251 -2.2275 -4.0640
 8283SOL     H251049   6.501   5.515   0.346 -0.3685  2.0085  0.8068
 8284SOL    OH251050   7.322   0.073   8.171 -0.2829 -0.0202  0.2746
 8284SOL     H151051   7.286   0.044   8.088  0.1079 -0.2275  0.1796
 8284SOL     H251052   7.379   0.147   8.148 -0.7148  0.3708  0.4354
 8285SOL    OH251053   2.243   7.083   0.589  0.0513 -0.5194  0.5749
 8285SOL     H151054   2.197   7.039   0.661 -0.9983  0.3987  0.4697
 8285SOL     H251055   2.222   7.031   0.512 -0.3858 -0.4034  0.6150
 8286SOL    OH251056   1.066   3.741   2.243  0.2371 -0.1178  0.0330
 8286SOL     H151057   1.078   3.714   2.334 -1.1745 -0.2999  0.1750
 8286SOL     H251058   1.001   3.810   2.246  0.5495  0.2210 -0.7974
 8287SOL    OH251059   1.863   0.080   7.781 -0.0670  0.0597  0.3928
 8287SOL     H151060   1.805   0.092   7.857  0.0955  1.7966  0.2743
 8287SOL     H251061   1.855   0.163   7.733  2.2185  0.1629  0.1690
 8288SOL    OH251062   4.869   1.244   1.759  0.9593  0.6267 -0.3018
 8288SOL     H151063   4.837   1.219   1.846  0.2032  1.2699 -0.3968
 8288SOL     H251064   4.913   1.328   1.773  1.0547  0.6119 -0.5068
 8289SOL    OH251065   6.405   6.487   0.702 -0.0230  0.5417  0.6467
 8289SOL     H151066   6.491   6.464   0.738 -0.0998  0.7860  0.9920
 8289SOL     H251067   6.347   6.490   0.779 -0.1290  1.3480  0.5368
 8290SOL    OH251068   4.426   0.859   0.230 -0.0900 -0.5877  0.1165
 8290SOL     H151069   4.399   0.931   0.286 -1.0114 -0.3462 -0.6330
 8290SOL     H251070   4.482   0.900   0.164 -0.2165 -0.6372 -0.0213
 8291SOL    OH251071   2.116   0.266   6.037  0.3303 -0.2288 -0.1036
 8291SOL     H151072   2.102   0.286   5.944 -0.0470  0.8505  0.1777
 8291SOL     H251073   2.211   0.264   6.046  0.3775  0.9397 -0.2578
 8292SOL    OH251074   7.675   2.999   0.091  0.0474 -0.3624 -0.1842
 8292SOL     H151075   7.596   3.009   0.144  0.5534 -1.4886  0.8262
 8292SOL     H251076   7.674   2.907   0.065  0.6348 -0.1957 -0.8007
 8293SOL    OH251077   0.943   0.158   7.775  0.5598 -0.4128 -0.6191
 8293SOL     H151078   0.920   0.081   7.722  1.3329 -1.3110  0.3223
 8293SOL     H251079   1.038   0.165   7.766  1.1267 -2.3510  2.9317
 8294SOL    OH251080   3.469   7.893   7.426 -0.5762  0.4900  0.2024
 8294SOL     H151081   3.551   7.897   7.377 -1.2457 -1.3291 -1.1364
 8294SOL     H251082   3.490   7.933   7.510  1.4747  0.7584 -0.3926
 8295SOL    OH251083   1.608   7.399   6.714  0.4947  0.0525  0.6749
 8295SOL     H151084   1.690   7.351   6.706  1.0034  0.8572  1.0252
 8295SOL     H251085   1.629   7.488   6.686 -0.7396 -0.2132 -1.2122
 8296SOL    OH251086   7.731   1.626   7.438 -0.0397  0.5313 -0.1854
 8296SOL     H151087   7.767   1.627   7.349 -1.9222 -1.0040 -1.0097
 8296SOL     H251088   7.731   1.534   7.463 -1.8502  0.6615  0.3989
 8297SOL    OH251089   4.638   3.236   6.080  0.1521 -0.0652 -0.4732
 8297SOL     H151090   4.649   3.283   5.998 -3.0145  1.8263  0.1308
 8297SOL     H251091   4.638   3.143   6.055  2.8984  0.3269 -2.0943
 8298SOL    OH251092   4.873   4.136   0.347 -0.3523  0.4138 -0.1991
 8298SOL     H151093   4.884   4.156   0.440 -0.2769  1.1071 -0.3516
 8298SOL     H251094   4.962   4.130   0.313 -0.3822  0.7098 -0.3348
 8299SOL    OH251095   0.618   1.243   8.040 -0.1183  0.1901 -0.1909
 8299SOL     H151096   0.650   1.285   8.119  1.7077 -0.3966 -0.5905
 8299SOL     H251097   0.571   1.312   7.994  0.8787  1.1901  0.2586
 8300SOL    OH251098   4.551   3.183   1.203  0.1380  0.0386 -0.5322
 8300SOL     H151099   4.491   3.112   1.181  1.0908 -0.5703 -1.2045
 8300SOL     H251100   4.542   3.193   1.297  0.1201 -1.1010 -0.4005
 8301SOL    OH251101   5.407   3.099   8.139  0.7370  0.3693 -0.1221
 8301SOL     H151102   5.385   3.182   8.096  0.5791  0.2916 -0.1889
 8301SOL     H251103   5.425   3.123   8.230 -0.2803  0.3327  0.0916
 8302SOL    OH251104   4.142   4.029   0.220 -0.1320 -0.2679  0.1746
 8302SOL     H151105   4.060   4.041   0.268  0.1550 -0.7831  0.8089
 8302SOL     H251106   4.116   4.014   0.129 -0.6642  1.1420  0.0802
 8303SOL    OH251107   4.812   4.260   1.275  0.4405 -0.3511 -0.2436
 8303SOL     H151108   4.868   4.337   1.264 -0.9186  0.6291 -0.3994
 8303SOL     H251109   4.850   4.214   1.350  0.2307  1.4422  1.0140
 8304SOL    OH251110   6.735   0.306   7.404  0.7022 -0.8590  0.3485
 8304SOL     H151111   6.804   0.264   7.354 -0.9986 -1.0416 -1.9579
 8304SOL     H251112   6.723   0.391   7.360 -2.1228 -1.8107 -0.8280
 8305SOL    OH251113   5.035   6.616   2.484  0.3742  0.1355  0.0880
 8305SOL     H151114   4.991   6.591   2.403 -1.0686  0.4750  0.7485
 8305SOL     H251115   5.012   6.708   2.496  2.3619  0.6972 -0.2437
 8306SOL    OH251116   6.632   3.494   0.844  0.1798 -0.2186  0.3201
 8306SOL     H151117   6.547   3.533   0.863 -0.2986 -1.3188  0.4527
 8306SOL     H251118   6.633   3.485   0.749 -0.0161 -0.5897  0.3548
 8307SOL    OH251119   1.130   0.227   6.473 -0.5697  0.1065  0.2750
 8307SOL     H151120   1.200   0.271   6.425 -0.6411  0.5581  0.5809
 8307SOL     H251121   1.079   0.183   6.405  0.7125 -1.2525  0.1538
 8308SOL    OH251122   0.425   2.085   7.954  0.3541 -0.0660  0.2956
 8308SOL     H151123   0.370   2.010   7.980 -1.4042  0.4135 -1.9167
 8308SOL     H251124   0.436   2.135   8.035  0.6700 -2.1408  1.5865
 8309SOL    OH251125   6.528   0.779   0.195 -0.0927  0.9795 -0.3883
 8309SOL     H151126   6.468   0.854   0.202 -1.9322 -0.4120 -0.8826
 8309SOL     H251127   6.511   0.743   0.109 -1.0445 -1.4898  0.7795
 8310SOL    OH251128   0.348   5.850   0.693  0.3909 -0.0315 -0.0232
 8310SOL     H151129   0.363   5.944   0.681 -2.0368  0.3520 -0.2822
 8310SOL     H251130   0.365   5.812   0.607  2.4778 -0.0226  0.3467
 8311SOL    OH251131   4.697   7.347   1.992  0.0900  0.7637  1.3805
 8311SOL     H151132   4.731   7.400   1.919 -0.9841  0.5371  0.7139
 8311SOL     H251133   4.775   7.306   2.030  0.7392  1.4826  0.8363
 8312SOL    OH251134   0.185   3.104   2.124  0.0785  0.3509  0.2754
 8312SOL     H151135   0.221   3.174   2.071 -1.6882  0.2962 -1.0316
 8312SOL     H251136   0.167   3.145   2.209  0.3710  1.1220 -0.0347
 8313SOL    OH251137   3.830   1.612   0.876 -0.1825  0.1306 -0.2552
 8313SOL     H151138   3.783   1.553   0.817 -1.3264  2.5321 -1.8011
 8313SOL     H251139   3.780   1.609   0.957  0.1089 -1.4339 -0.1019
 8314SOL    OH251140   1.579   2.853   2.208  0.1198 -0.1363 -0.4012
 8314SOL     H151141   1.553   2.790   2.141  1.4004 -1.2908  0.1747
 8314SOL     H251142   1.674   2.842   2.217  0.2898  1.5167  0.0663
 8315SOL    OH251143   1.954   0.610   0.874  0.3113  0.3869  0.0905
 8315SOL     H151144   1.968   0.625   0.967 -0.0947 -0.0424  0.2241
 8315SOL     H251145   1.981   0.519   0.860 -0.1341  0.2818 -0.0987
 8316SOL    OH251146   3.775   7.784   1.722 -0.1968  0.1225 -0.0251
 8316SOL     H151147   3.833   7.709   1.739 -0.2728 -0.2262 -1.2574
 8316SOL     H251148   3.822   7.837   1.658 -0.0878  1.2074  0.9449
 8317SOL    OH251149   4.894   0.982   7.953  0.0430 -0.2656 -0.4892
 8317SOL     H151150   4.923   1.062   7.910 -0.5048 -1.0856 -2.4325
 8317SOL     H251151   4.801   0.997   7.970 -0.1072 -0.5909 -1.0498
 8318SOL    OH251152   5.381   1.489   1.131  0.4897  0.2102  0.1254
 8318SOL     H151153   5.423   1.505   1.215  2.0167  1.3318 -0.8219
 8318SOL     H251154   5.400   1.568   1.079 -0.6987 -0.3228 -1.1608
 8319SOL    OH251155   3.452   4.214   7.828  0.9000 -0.0222 -0.3009
 8319SOL     H151156   3.365   4.193   7.792  0.4718 -0.1092  0.7522
 8319SOL     H251157   3.477   4.296   7.786  0.3577 -0.0592 -0.7014
 8320SOL    OH251158   2.257   5.684   6.888  0.6120  0.0405 -0.3113
 8320SOL     H151159   2.305   5.743   6.946 -0.8624 -0.9524  1.9511
 8320SOL     H251160   2.324   5.626   6.852  1.0216 -2.1739  3.8141
 8321SOL    OH251161   6.845   5.576   6.885  0.0845 -0.1422 -0.6231
 8321SOL     H151162   6.900   5.627   6.827  2.2234 -3.4217 -1.6237
 8321SOL     H251163   6.838   5.629   6.965  1.8807  1.8410 -1.7400
 8322SOL    OH251164   6.168   2.649   2.007  0.8925  0.1752 -0.1749
 8322SOL     H151165   6.201   2.690   2.087 -0.3889  0.9901 -0.0608
 8322SOL     H251166   6.081   2.617   2.031  1.3988 -1.5785 -0.5986
 8323SOL    OH251167   1.967   5.287   1.751  0.1760 -0.0344  0.0230
 8323SOL     H151168   2.050   5.331   1.734  0.9424 -1.0022  1.1873
 8323SOL     H251169   1.980   5.243   1.835 -1.0298 -1.3695 -0.4751
 8324SOL    OH251170   6.988   2.254   0.527 -0.0841 -0.1061 -0.6439
 8324SOL     H151171   7.076   2.224   0.502  0.5668  0.7708  0.5194
 8324SOL     H251172   6.995   2.350   0.525 -0.4140 -0.0159  1.4153
 8325SOL    OH251173   6.885   1.940   6.407 -0.1256 -0.4210  0.1542
 8325SOL     H151174   6.975   1.970   6.396  0.1468 -1.1113  0.4211
 8325SOL     H251175   6.833   2.020   6.411  0.7297  0.0751  2.1975
 8326SOL    OH251176   0.566   5.061   0.918  0.4190  0.0969 -0.1731
 8326SOL     H151177   0.595   5.135   0.864  1.7773 -1.0688 -1.0822
 8326SOL     H251178   0.637   5.047   0.980 -0.8667  1.0249  1.5325
 8327SOL    OH251179   1.744   3.933   0.811 -0.1943  0.3879  0.4026
 8327SOL     H151180   1.738   3.948   0.905 -1.3771  0.1156  0.3854
 8327SOL     H251181   1.663   3.887   0.789  0.0192  0.5501 -0.7675
 8328SOL    OH251182   3.520   1.705   2.789 -0.0407 -0.1316 -0.3367
 8328SOL     H151183   3.485   1.773   2.847 -1.8150 -1.0809 -0.2493
 8328SOL     H251184   3.514   1.624   2.841 -0.7164 -0.8273 -1.4791
 8329SOL    OH251185   5.892   0.275   2.246 -0.1006 -0.5713  0.3301
 8329SOL     H151186   5.841   0.308   2.320 -0.6873 -0.1031 -0.2766
 8329SOL     H251187   5.836   0.210   2.204  0.0493 -0.5071  0.0241
 8330SOL    OH251188   2.808   4.368   0.624  0.0519  0.5879  0.0389
 8330SOL     H151189   2.900   4.341   0.613 -0.5172 -1.9897  1.1788
 8330SOL     H251190   2.758   4.292   0.593 -1.6818  1.0933  1.5591
 8331SOL    OH251191   6.150   0.970   1.237  0.1558  0.0498  0.3789
 8331SOL     H151192   6.233   0.987   1.282 -0.6035  2.0536  1.0783
 8331SOL     H251193   6.130   0.879   1.257  0.7288  0.3877  2.6724
 8332SOL    OH251194   6.351   1.681   6.718 -0.5975  0.3923 -0.4824
 8332SOL     H151195   6.443   1.657   6.733 -0.3888 -0.0217 -2.2378
 8332SOL     H251196   6.354   1.738   6.641 -1.7584  0.7807 -0.2436
 8333SOL    OH251197   1.855   5.968   1.169  0.3234  0.1193 -0.1707
 8333SOL     H151198   1.883   6.033   1.104 -0.8875  1.2973  0.4555
 8333SOL     H251199   1.934   5.917   1.187  0.2779 -1.4317 -3.9069
 8334SOL    OH251200   5.925   7.106   0.900  0.6305  0.4106 -0.1346
 8334SOL     H151201   5.876   7.047   0.843  0.8671 -0.6665  0.7701
 8334SOL     H251202   5.935   7.186   0.848  0.5170 -0.4175 -1.4615
 8335SOL    OH251203   0.529   6.025   6.381  0.7207  0.5267  0.0784
 8335SOL     H151204   0.586   6.101   6.377  1.0698  0.1708 -2.6383
 8335SOL     H251205   0.588   5.951   6.396  0.2093  0.8956  4.7615
 8336SOL    OH251206   7.159   1.362   7.384 -0.1439  0.1662 -0.0217
 8336SOL     H151207   7.218   1.326   7.450  0.9658  1.2221 -0.4143
 8336SOL     H251208   7.091   1.407   7.434  1.4092  2.0979  0.4379
 8337SOL    OH251209   2.931   2.297   2.183 -0.2364 -0.2474  0.1946
 8337SOL     H151210   3.015   2.312   2.226  0.0186 -0.2530 -0.3030
 8337SOL     H251211   2.871   2.358   2.227  0.4048  0.9873 -0.6104
 8338SOL    OH251212   3.656   7.869   7.656  0.1571  0.4816 -0.2104
 8338SOL     H151213   3.677   7.867   7.749 -3.4059  2.9104  0.7690
 8338SOL     H251214   3.604   7.789   7.642 -0.8906  1.0482  0.3564
 8339SOL    OH251215   2.019   5.089   6.447 -0.7893 -0.1831 -0.0942
 8339SOL     H151216   2.030   5.182   6.465 -0.8131 -0.0480 -0.7877
 8339SOL     H251217   2.040   5.046   6.530 -1.1343  0.4607  0.3343
 8340SOL    OH251218   6.636   2.800   7.639  0.1557  0.6354 -0.2406
 8340SOL     H151219   6.596   2.847   7.565  0.5626 -1.7020 -1.9881
 8340SOL     H251220   6.730   2.811   7.625  0.2273  0.9743  0.4818
 8341SOL    OH251221   3.989   1.901   6.340 -0.2759  0.1186 -0.8545
 8341SOL     H151222   3.902   1.866   6.323 -0.4741 -0.1155  0.5907
 8341SOL     H251223   4.037   1.829   6.379 -0.0953  0.8855  0.3449
 8342SOL    OH251224   1.414   4.033   6.493  0.2129  0.5757 -0.1908
 8342SOL     H151225   1.468   3.978   6.436  0.5710 -0.1623  0.8486
 8342SOL     H251226   1.324   4.015   6.465  0.2879 -1.0292  0.5341
 8343SOL    OH251227   5.625   4.748   1.850  0.3225  0.5792  0.9208
 8343SOL     H151228   5.664   4.806   1.785 -1.3711  0.2474 -0.4172
 8343SOL     H251229   5.692   4.682   1.867  1.8752  2.3113  1.6879
 8344SOL    OH251230   2.407   0.747   0.640 -0.3977  0.2971  0.2929
 8344SOL     H151231   2.402   0.742   0.544 -0.8008  1.4358  0.2445
 8344SOL     H251232   2.389   0.839   0.660  0.8321  0.3083  1.3940
 8345SOL    OH251233   7.270   3.659   7.428  0.2153 -0.3077 -0.6593
 8345SOL     H151234   7.218   3.580   7.434  2.1891 -1.7775 -2.2590
 8345SOL     H251235   7.321   3.661   7.509  1.4156 -1.6324 -1.3562
 8346SOL    OH251236   2.342   4.390   6.870  0.6004  0.3936 -0.4282
 8346SOL     H151237   2.429   4.397   6.911  0.2174  1.5683  0.1979
 8346SOL     H251238   2.360   4.391   6.776  1.1874  1.9652 -0.3210
 8347SOL    OH251239   3.637   2.126   7.736  0.0970  0.6528  0.7017
 8347SOL     H151240   3.630   2.220   7.750  1.4565  0.7123  1.0772
 8347SOL     H251241   3.562   2.104   7.680 -1.9959  1.4321  3.0714
 8348SOL    OH251242   5.091   0.637   1.928  0.1655  0.5568 -0.3850
 8348SOL     H151243   5.034   0.704   1.966 -0.8699  0.6832 -2.1022
 8348SOL     H251244   5.179   0.667   1.948 -0.3349  0.9086  1.3914
 8349SOL    OH251245   5.024   6.570   0.682  0.2421  0.0848  0.1447
 8349SOL     H151246   4.975   6.561   0.763  1.7222 -1.0421  0.9492
 8349SOL     H251247   5.056   6.660   0.682  1.0115 -0.1882  1.2706
 8350SOL    OH251248   7.844   3.405   7.836  0.1158 -0.5069 -0.3780
 8350SOL     H151249   7.873   3.489   7.872 -1.8412  0.2495 -0.4826
 8350SOL     H251250   7.878   3.339   7.896  1.1466  0.4049  0.0544
 8351SOL    OH251251   0.576   0.885   5.961 -0.1449 -0.0037  0.0103
 8351SOL     H151252   0.529   0.963   5.991  0.8411  0.2749  0.8933
 8351SOL     H251253   0.659   0.919   5.926 -1.0989 -0.3642 -2.7182
 8352SOL    OH251254   3.453   0.615   6.600 -0.5588 -0.2381 -0.8985
 8352SOL     H151255   3.371   0.607   6.552  0.4860 -1.7440 -2.4653
 8352SOL     H251256   3.506   0.540   6.572  1.7650  1.2717 -0.7443
 8353SOL    OH251257   2.049   2.885   1.712  0.1673 -0.4750  0.1425
 8353SOL     H151258   2.122   2.905   1.770  1.2484 -1.6038 -0.8056
 8353SOL     H251259   1.988   2.957   1.724 -0.0234 -1.1099  3.3073
 8354SOL    OH251260   5.918   0.698   0.490 -0.1373 -0.1146 -0.6300
 8354SOL     H151261   5.826   0.688   0.515 -0.0372 -0.9839 -0.5842
 8354SOL     H251262   5.963   0.628   0.537  0.6023  0.4987 -0.4068
 8355SOL    OH251263   7.353   2.987   1.623 -0.4841  0.2319  0.2557
 8355SOL     H151264   7.259   2.972   1.621 -0.3615 -0.4866 -0.5235
 8355SOL     H251265   7.391   2.907   1.586  0.3997  0.7500  0.0199
 8356SOL    OH251266   4.973   1.092   2.160 -0.0603  0.1817  0.1838
 8356SOL     H151267   5.051   1.134   2.123 -0.2550  0.0134 -0.4326
 8356SOL     H251268   4.975   1.115   2.253  0.0576  1.2105 -0.0647
 8357SOL    OH251269   1.283   1.899   6.160  0.0793  0.3316 -0.2537
 8357SOL     H151270   1.288   1.885   6.065 -0.9465  0.2216 -0.2879
 8357SOL     H251271   1.363   1.858   6.194 -1.2971 -2.8053 -0.6954
 8358SOL    OH251272   4.129   2.884   0.820 -0.7143  0.7111  0.1254
 8358SOL     H151273   4.100   2.878   0.729  0.5962  2.2944 -0.4283
 8358SOL     H251274   4.217   2.846   0.820 -1.1544 -0.3209  0.9655
 8359SOL    OH251275   3.112   7.644   7.519 -0.6353 -0.3702  0.2627
 8359SOL     H151276   3.079   7.714   7.463  0.3930 -0.4323 -0.4419
 8359SOL     H251277   3.133   7.572   7.459 -0.0639 -0.6494  0.7842
 8360SOL    OH251278   7.440   6.593   1.355  0.4267 -0.3773 -0.8156
 8360SOL     H151279   7.459   6.638   1.273  1.1526  1.2500  0.2096
 8360SOL     H251280   7.458   6.501   1.337  1.7373  0.1157 -2.1306
 8361SOL    OH251281   4.794   7.731   7.605 -0.4663  0.0142 -0.2430
 8361SOL     H151282   4.745   7.685   7.674  0.5695 -0.2109  0.3509
 8361SOL     H251283   4.775   7.683   7.525  0.4102 -1.3082  0.3365
 8362SOL    OH251284   0.165   6.778   7.736 -0.3072  0.0226 -0.3822
 8362SOL     H151285   0.110   6.751   7.809 -1.5828 -0.5751 -1.5212
 8362SOL     H251286   0.254   6.773   7.769 -0.8177 -0.9877  0.8873
 8363SOL    OH251287   0.870   4.100   6.014  0.0272 -0.0526 -0.3927
 8363SOL     H151288   0.828   4.087   5.929  1.3255 -0.3159 -0.9951
 8363SOL     H251289   0.808   4.063   6.077 -0.5455 -0.6413 -1.2894
 8364SOL    OH251290   4.330   6.110   7.373 -0.2387  0.2606 -0.0939
 8364SOL     H151291   4.421   6.113   7.404  0.0602 -1.9304 -0.6558
 8364SOL     H251292   4.278   6.103   7.454  0.2231 -0.3153  0.1626
 8365SOL    OH251293   0.271   4.963   0.311  0.2905  0.7961 -0.2638
 8365SOL     H151294   0.222   4.882   0.328  1.2587  0.4550  0.9681
 8365SOL     H251295   0.315   4.982   0.394  2.9967  0.5925 -1.6199
 8366SOL    OH251296   5.286   6.452   7.923 -0.4607  0.4788  0.3791
 8366SOL     H151297   5.272   6.381   7.987  1.9098  1.1394  1.6964
 8366SOL     H251298   5.352   6.418   7.864 -2.6095 -0.0988 -1.7601
 8367SOL    OH251299   3.488   0.871   7.257 -0.4505 -0.3585  0.3488
 8367SOL     H151300   3.404   0.907   7.283 -0.9928  0.1266 -1.9805
 8367SOL     H251301   3.536   0.945   7.221  0.9125 -0.6705  1.4973
 8368SOL    OH251302   5.290   2.248   0.186 -0.2591 -0.3941  0.4670
 8368SOL     H151303   5.281   2.157   0.158  2.7272 -0.5522 -0.1485
 8368SOL     H251304   5.290   2.244   0.281  0.5478 -1.1485  0.4458
 8369SOL    OH251305   0.934   1.685   2.846 -0.0722 -0.0254  0.5301
 8369SOL     H151306   0.882   1.692   2.767  1.9945  0.3094 -0.8300
 8369SOL     H251307   0.923   1.594   2.874 -0.6869 -0.1774 -0.2145
 8370SOL    OH251308   0.724   2.191   2.512  0.5371 -0.6131 -0.3165
 8370SOL     H151309   0.788   2.235   2.455 -0.6632 -0.9648 -1.9499
 8370SOL     H251310   0.729   2.099   2.488 -0.7363 -0.6118 -0.5834
 8371SOL    OH251311   6.424   6.234   8.000 -0.5174 -0.5280  0.9158
 8371SOL     H151312   6.445   6.298   8.068 -1.9934 -0.9585  1.8149
 8371SOL     H251313   6.492   6.167   8.009  0.2725  0.2556  0.8428
 8372SOL    OH251314   3.451   6.224   6.518  0.2398 -0.0448  0.8953
 8372SOL     H151315   3.528   6.171   6.536  0.1219 -0.6725 -0.4441
 8372SOL     H251316   3.462   6.255   6.428  0.0638  1.7931  1.4817
 8373SOL    OH251317   6.048   3.994   1.197  0.2029 -0.3033 -0.6519
 8373SOL     H151318   6.091   3.954   1.122 -1.2100 -2.0311 -0.5656
 8373SOL     H251319   5.963   4.022   1.164  0.2799  0.5517 -0.1310
 8374SOL    OH251320   0.420   4.767   1.992 -0.4808 -0.2324 -0.0273
 8374SOL     H151321   0.428   4.672   1.999 -0.4305 -0.3114 -1.1135
 8374SOL     H251322   0.352   4.781   1.926 -1.0705  0.4872  0.7250
 8375SOL    OH251323   1.220   3.966   6.724  0.4279  0.4052 -0.4509
 8375SOL     H151324   1.229   3.949   6.630 -1.3527 -0.3792 -0.4898
 8375SOL     H251325   1.224   4.061   6.731 -1.2804  0.5894 -1.5519
 8376SOL    OH251326   3.109   4.267   1.497 -0.3432 -0.2993 -0.0931
 8376SOL     H151327   3.113   4.177   1.462  1.1989  0.0730 -0.9298
 8376SOL     H251328   3.189   4.275   1.550 -0.1911  0.7550 -0.4802
 8377SOL    OH251329   1.498   5.322   1.152 -0.5468 -0.1453  0.6145
 8377SOL     H151330   1.574   5.379   1.140 -1.9545  1.5598 -0.2888
 8377SOL     H251331   1.491   5.274   1.070  0.0684 -0.9551  1.0262
 8378SOL    OH251332   2.225   2.580   0.109  0.2701 -0.0186  0.2819
 8378SOL     H151333   2.136   2.567   0.077  0.3848  0.0010 -0.0550
 8378SOL     H251334   2.280   2.572   0.030  0.4682  1.0451  0.3074
 8379SOL    OH251335   4.239   3.607   6.746  0.2659  0.2563 -0.1159
 8379SOL     H151336   4.245   3.513   6.761  0.9111 -0.1199 -2.4988
 8379SOL     H251337   4.192   3.641   6.822 -1.4284 -2.2224 -0.0062
 8380SOL    OH251338   6.304   3.774   8.255 -0.0815 -0.6381 -0.5028
 8380SOL     H151339   6.264   3.828   8.186 -0.0738  0.3685  0.2601
 8380SOL     H251340   6.391   3.811   8.267 -0.2850 -0.4546  0.4263
 8381SOL    OH251341   2.809   3.484   0.353  0.5308  0.4410 -0.0642
 8381SOL     H151342   2.861   3.419   0.400 -0.0717  0.6480  0.9224
 8381SOL     H251343   2.718   3.459   0.370  0.3037  1.0575 -0.3514
 8382SOL    OH251344   2.808   4.634   0.748 -0.4361  0.2988  0.3770
 8382SOL     H151345   2.892   4.655   0.706 -0.7063  0.6118 -0.0132
 8382SOL     H251346   2.796   4.541   0.730 -0.7879  0.5436 -0.6761
 8383SOL    OH251347   7.082   6.341   0.316  0.0584 -0.2827  0.1760
 8383SOL     H151348   7.000   6.301   0.288 -0.7288  1.8624 -0.6901
 8383SOL     H251349   7.135   6.346   0.236  1.5727 -2.7532  0.9415
 8384SOL    OH251350   7.612   7.263   0.199 -0.3409 -0.0948  0.2776
 8384SOL     H151351   7.635   7.351   0.228  0.4665  0.1034 -0.9226
 8384SOL     H251352   7.696   7.218   0.189 -0.6958 -0.6682 -0.1705
 8385SOL    OH251353   1.432   7.381   7.582 -0.3073  0.8798  0.7980
 8385SOL     H151354   1.441   7.438   7.505  0.0212 -0.3178 -0.0576
 8385SOL     H251355   1.365   7.424   7.636 -1.4538  1.0763 -0.7508
 8386SOL    OH251356   6.702   0.649   7.677  0.0617  0.4442 -0.0695
 8386SOL     H151357   6.772   0.663   7.614  1.2013  0.0173  1.1038
 8386SOL     H251358   6.647   0.727   7.669  1.1291  1.1715 -0.3881
 8387SOL    OH251359   3.489   1.860   1.276 -0.1946  0.3303  0.1396
 8387SOL     H151360   3.540   1.916   1.218  0.1543  1.1557  1.2259
 8387SOL     H251361   3.398   1.885   1.260 -0.1416  0.1510 -0.4573
 8388SOL    OH251362   3.710   4.816   0.669 -0.1993 -0.0508 -0.3529
 8388SOL     H151363   3.798   4.779   0.676  0.7565  1.9270 -1.4853
 8388SOL     H251364   3.688   4.843   0.758 -0.3617 -2.0690  0.2331
 8389SOL    OH251365   1.206   7.662   0.851  0.9651  1.0183  0.4505
 8389SOL     H151366   1.294   7.641   0.820  1.0996 -0.6314  1.8923
 8389SOL     H251367   1.147   7.622   0.787  1.2553 -0.0653  0.8580
 8390SOL    OH251368   6.885   0.136   1.029 -0.1287  0.0590  0.5063
 8390SOL     H151369   6.885   0.061   0.969  0.0591 -0.9110  1.7059
 8390SOL     H251370   6.856   0.100   1.112  0.3607  1.2451  1.1989
 8391SOL    OH251371   4.520   0.135   7.648 -0.2730 -0.1792  0.0767
 8391SOL     H151372   4.570   0.197   7.594 -0.1036 -0.6689 -0.3264
 8391SOL     H251373   4.484   0.189   7.718  0.5118  0.2392  0.1575
 8392SOL    OH251374   0.493   0.354   6.164 -0.4413  0.0953  0.1685
 8392SOL     H151375   0.519   0.446   6.152  1.6765 -0.5350 -0.3006
 8392SOL     H251376   0.528   0.331   6.251 -0.6691 -0.3666  0.1363
 8393SOL    OH251377   7.445   7.716   1.248 -0.9964  0.7059  0.2119
 8393SOL     H151378   7.373   7.701   1.310 -0.9452  0.1218  0.1329
 8393SOL     H251379   7.507   7.645   1.265 -1.6629 -0.3447 -1.4821
 8394SOL    OH251380   6.947   5.316   0.176 -0.5752  0.0464  0.2136
 8394SOL     H151381   6.857   5.345   0.193 -1.4577 -1.7082 -1.2998
 8394SOL     H251382   6.969   5.355   0.091  0.0166  0.2460  0.4534
 8395SOL    OH251383   5.011   6.715   8.084 -0.1013  0.1375 -0.1603
 8395SOL     H151384   5.012   6.694   7.990  0.1867  0.1210 -0.1566
 8395SOL     H251385   5.104   6.716   8.108 -0.2032 -0.6646  0.2997
 8396SOL    OH251386   7.078   6.305   1.727  0.3535  0.1923 -0.2143
 8396SOL     H151387   7.024   6.339   1.655 -0.1921  0.0554  0.1299
 8396SOL     H251388   7.150   6.368   1.735  0.2472  0.3737 -0.6756
 8397SOL    OH251389   1.221   1.296   0.505  0.7128  0.4163  0.3145
 8397SOL     H151390   1.174   1.261   0.429  0.4094  2.4852 -0.4937
 8397SOL     H251391   1.287   1.230   0.526 -0.8755 -1.3496 -0.1433
 8398SOL    OH251392   3.294   2.944   7.506  0.0697  0.1804 -0.1801
 8398SOL     H151393   3.225   2.922   7.444  1.4540 -1.7330 -1.0778
 8398SOL     H251394   3.249   2.948   7.591 -1.4163  0.5745 -0.9681
 8399SOL    OH251395   5.227   4.688   8.228  0.0413  0.4596  0.6041
 8399SOL     H151396   5.275   4.645   8.158 -0.5167  0.6768  0.0789
 8399SOL     H251397   5.270   4.659   8.308  1.1760  0.8176  0.1372
 8400SOL    OH251398   1.180   2.485   7.583 -0.2291 -0.6882  0.0386
 8400SOL     H151399   1.086   2.469   7.587 -0.6589  1.7761  0.3807
 8400SOL     H251400   1.220   2.400   7.601 -2.3737 -2.1878 -2.0680
 8401SOL    OH251401   1.329   7.183   1.226  0.3157  0.5238 -0.0118
 8401SOL     H151402   1.255   7.227   1.267  0.2815 -0.1597  0.6573
 8401SOL     H251403   1.313   7.090   1.239  0.3380  0.2892 -1.5167
 8402SOL    OH251404   5.717   2.830   0.780 -0.0356  0.4574 -0.6066
 8402SOL     H151405   5.801   2.794   0.753 -0.1983 -1.2260  1.0340
 8402SOL     H251406   5.734   2.924   0.791  1.5972  0.1545 -0.3895
 8403SOL    OH251407   7.271   2.818   7.179  0.5709 -0.2470  0.0957
 8403SOL     H151408   7.266   2.832   7.084 -1.6580  1.1814  0.4001
 8403SOL     H251409   7.358   2.850   7.203  1.8305 -2.1971 -1.6832
 8404SOL    OH251410   6.472   6.695   0.516  0.0094 -0.0084 -0.2751
 8404SOL     H151411   6.508   6.752   0.583 -0.7354  0.6833 -0.4574
 8404SOL     H251412   6.459   6.611   0.560 -1.9337  0.8627  0.9049
 8405SOL    OH251413   0.326   1.127   2.703  0.5481  0.6646 -0.3284
 8405SOL     H151414   0.264   1.148   2.634  0.7704  2.5245  0.0071
 8405SOL     H251415   0.337   1.032   2.698 -2.7918  0.2249  0.0470
 8406SOL    OH251416   0.394   4.505   2.006 -0.2953  0.4218  0.3167
 8406SOL     H151417   0.299   4.497   2.001 -0.3668  0.8479  0.9842
 8406SOL     H251418   0.415   4.493   2.098  0.4282 -1.0269 -0.0139
 8407SOL    OH251419   5.614   0.973   0.627  0.1077  0.0460 -0.5342
 8407SOL     H151420   5.546   0.925   0.580 -0.6923  0.5694  0.0924
 8407SOL     H251421   5.623   0.927   0.710  0.2492  0.2152 -0.4571
 8408SOL    OH251422   2.712   7.855   7.185  0.1294  1.0200  0.0777
 8408SOL     H151423   2.725   7.897   7.099  0.6420  0.5893 -0.0596
 8408SOL     H251424   2.641   7.905   7.225 -2.6110 -0.9868 -2.0443
 8409SOL    OH251425   6.759   3.207   7.047 -0.1634  0.2528  0.2784
 8409SOL     H151426   6.685   3.225   6.990  1.3679 -0.7236 -2.1109
 8409SOL     H251427   6.797   3.293   7.065 -1.3587  0.6766  0.8180
 8410SOL    OH251428   0.699   2.034   7.851  0.0666 -0.3241 -0.1750
 8410SOL     H151429   0.606   2.028   7.871  0.3073 -1.5980  0.6587
 8410SOL     H251430   0.715   1.965   7.788  0.9357 -1.8526  1.6796
 8411SOL    OH251431   3.123   5.298   2.287 -0.2953  0.4183 -0.5876
 8411SOL     H151432   3.083   5.342   2.362 -2.1679 -3.1722  0.6425
 8411SOL     H251433   3.201   5.256   2.321  0.0739  0.6207 -1.1662
 8412SOL    OH251434   1.811   0.436   0.474  0.4460 -0.0324  0.3217
 8412SOL     H151435   1.849   0.377   0.409 -1.6692 -0.5981 -0.4558
 8412SOL     H251436   1.796   0.381   0.551 -0.8615 -0.3692 -0.1568
 8413SOL    OH251437   7.367   1.592   2.307  0.8288  0.2608 -0.2970
 8413SOL     H151438   7.306   1.635   2.366  0.5773  1.1519 -1.2101
 8413SOL     H251439   7.453   1.623   2.335  0.7592  0.1628  0.0280
 8414SOL    OH251440   4.817   3.020   7.729  0.6016 -0.0986  0.2717
 8414SOL     H151441   4.821   3.106   7.687  1.6276 -0.1065  0.3500
 8414SOL     H251442   4.869   3.030   7.808  2.9989 -1.5619 -1.0946
 8415SOL    OH251443   1.736   5.180   7.630  0.0564 -0.1820 -0.2291
 8415SOL     H151444   1.679   5.103   7.636  0.7011 -0.6405 -0.0567
 8415SOL     H251445   1.693   5.236   7.565  0.9325 -1.8189 -2.2733
 8416SOL    OH251446   3.908   0.286   1.151 -0.7334  0.3339 -0.1040
 8416SOL     H151447   3.869   0.258   1.233 -0.2448 -0.1292 -0.0255
 8416SOL     H251448   3.843   0.265   1.084 -1.2426  0.9622  0.1971
 8417SOL    OH251449   2.469   1.260   1.814  0.0656 -0.0013  0.2422
 8417SOL     H151450   2.488   1.231   1.904 -1.8907 -0.8777  0.3744
 8417SOL     H251451   2.544   1.228   1.763 -1.1247 -3.7665  0.6959
 8418SOL    OH251452   0.362   3.979   0.664  0.4651  0.3770  0.2460
 8418SOL     H151453   0.274   3.985   0.701  0.6212  0.6238  0.5809
 8418SOL     H251454   0.349   3.946   0.576 -0.0015  0.7935  0.1569
 8419SOL    OH251455   5.246   7.148   7.448 -0.4068 -0.2232 -0.1841
 8419SOL     H151456   5.157   7.176   7.427 -0.3341  0.0410 -0.1505
 8419SOL     H251457   5.235   7.085   7.519 -0.5013  0.6539  0.5997
 8420SOL    OH251458   2.231   6.109   0.400 -0.4105 -0.3724  0.0193
 8420SOL     H151459   2.302   6.155   0.357 -0.0452  0.5225  1.5354
 8420SOL     H251460   2.274   6.039   0.449 -0.7573 -0.9726 -0.5192
 8421SOL    OH251461   7.770   5.149   6.769 -0.4232 -0.5116  0.8356
 8421SOL     H151462   7.845   5.129   6.824 -1.4888  0.0917  2.5409
 8421SOL     H251463   7.734   5.064   6.746 -0.4670 -0.7492  1.7722
 8422SOL    OH251464   4.211   4.352   0.118  0.0867 -0.1622  0.4776
 8422SOL     H151465   4.171   4.439   0.120 -0.9319 -0.5724 -1.0675
 8422SOL     H251466   4.169   4.305   0.190 -1.2795 -0.1558 -0.2757
 8423SOL    OH251467   7.177   3.231   1.819  0.1157  0.5172 -0.1618
 8423SOL     H151468   7.165   3.151   1.871 -0.0849  0.4031 -0.3840
 8423SOL     H251469   7.110   3.291   1.853  0.9834  0.9757  0.7615
 8424SOL    OH251470   0.342   1.463   2.387 -0.0563 -0.5192 -0.2073
 8424SOL     H151471   0.346   1.480   2.292  0.0143  0.3155 -0.0640
 8424SOL     H251472   0.275   1.523   2.419  1.5469  0.9020  0.6024
 8425SOL    OH251473   2.725   7.382   6.577 -0.1058  0.0155  0.1282
 8425SOL     H151474   2.629   7.384   6.587 -0.3734 -0.0358 -2.1513
 8425SOL     H251475   2.742   7.437   6.500  1.4986 -1.6864 -0.7729
 8426SOL    OH251476   0.586   0.941   7.747 -0.6358  0.5609  0.1513
 8426SOL     H151477   0.613   0.915   7.835 -0.9746  0.4790  0.2300
 8426SOL     H251478   0.661   0.918   7.692 -0.8095 -0.2765  0.2680
 8427SOL    OH251479   3.211   0.535   7.426  0.2400  0.3945  0.2498
 8427SOL     H151480   3.185   0.572   7.510  1.3260 -0.5772  1.0314
 8427SOL     H251481   3.201   0.441   7.437  2.2574  0.1193 -0.0254
 8428SOL    OH251482   4.579   1.285   1.732  0.7829  0.4981 -0.3754
 8428SOL     H151483   4.551   1.298   1.823 -0.8560 -0.5648 -0.7091
 8428SOL     H251484   4.654   1.226   1.738  0.8240  0.6131  0.2982
 8429SOL    OH251485   6.281   6.387   0.456  0.2285  0.3564 -0.0937
 8429SOL     H151486   6.333   6.424   0.528  0.0031 -0.4460  0.4855
 8429SOL     H251487   6.342   6.327   0.412  0.3274  0.7526 -0.5051
 8430SOL    OH251488   7.411   5.815   0.213 -0.2847 -0.2493  0.4593
 8430SOL     H151489   7.437   5.907   0.208 -1.2810 -0.0094 -0.2704
 8430SOL     H251490   7.473   5.770   0.155 -0.7587  0.1691 -0.3782
 8431SOL    OH251491   4.452   7.716   0.809  0.1138  0.3671 -0.1087
 8431SOL     H151492   4.458   7.692   0.902 -1.0304  0.1577 -0.0754
 8431SOL     H251493   4.543   7.730   0.782  0.6215 -1.3381  0.5834
 8432SOL    OH251494   7.105   3.121  -0.001  0.3522 -0.0050 -0.7413
 8432SOL     H151495   7.115   3.179   0.074  0.6942  0.6817 -1.3078
 8432SOL     H251496   7.172   3.150  -0.063 -0.1984 -0.2890 -1.4802
 8433SOL    OH251497   1.735   4.594   1.148  0.3800 -0.4495 -0.3535
 8433SOL     H151498   1.710   4.509   1.184 -0.6019 -0.1227 -0.2612
 8433SOL     H251499   1.653   4.632   1.117  0.7865  0.5736 -0.1685
 8434SOL    OH251500   4.149   4.476   0.755  0.0958  0.1225  0.5001
 8434SOL     H151501   4.119   4.430   0.833  1.0679  2.4335  2.2963
 8434SOL     H251502   4.242   4.493   0.772  0.3113  0.6541 -1.1596
 8435SOL    OH251503   0.940   7.485   7.969  0.0561 -0.7907  0.6320
 8435SOL     H151504   0.912   7.566   8.013 -0.3336  0.2247 -1.4470
 8435SOL     H251505   0.871   7.467   7.906  1.3176 -1.4281 -0.5881
 8436SOL    OH251506   1.179   5.340   1.175 -0.0943 -0.2718 -0.5020
 8436SOL     H151507   1.098   5.375   1.213  0.1285  0.9960 -1.1624
 8436SOL     H251508   1.181   5.249   1.203 -1.7803 -0.3320 -0.5150
 8437SOL    OH251509   2.470   1.207   2.107 -0.7639  0.1368  0.3807
 8437SOL     H151510   2.423   1.131   2.140 -0.9902 -0.5012 -1.3872
 8437SOL     H251511   2.559   1.195   2.138 -1.2160  0.1348  1.7204
 8438SOL    OH251512   3.907   6.565   1.138 -0.1876 -0.2978  0.0731
 8438SOL     H151513   3.915   6.498   1.205 -0.6279  1.1538  1.5987
 8438SOL     H251514   3.861   6.522   1.066  2.0602 -2.4574 -0.1570
 8439SOL    OH251515   3.060   1.031   0.430 -0.1966  0.7232  0.3994
 8439SOL     H151516   3.000   1.005   0.499 -0.7217 -0.7473 -0.5955
 8439SOL     H251517   3.080   0.950   0.383  1.5715  1.3959 -0.0659
 8440SOL    OH251518   7.770   0.453   7.545  0.4647  0.5770  0.4404
 8440SOL     H151519   7.743   0.376   7.595  1.7437 -0.0360  0.2132
 8440SOL     H251520   7.795   0.418   7.459 -1.1565  1.5409 -0.4434
 8441SOL    OH251521   0.991   7.636   7.474  0.3989  0.0251 -0.0015
 8441SOL     H151522   0.972   7.696   7.546  3.1027 -0.4020  1.0934
 8441SOL     H251523   1.024   7.692   7.404 -1.5551  0.3473 -0.7220
 8442SOL    OH251524   7.418   6.127   7.525  0.2914  0.1286 -0.4159
 8442SOL     H151525   7.349   6.177   7.567  0.0923 -0.4703 -0.0132
 8442SOL     H251526   7.391   6.120   7.433 -1.7191 -2.6034  0.2942
 8443SOL    OH251527   6.642   7.261   7.879  0.2232  0.0541  0.2227
 8443SOL     H151528   6.675   7.172   7.866 -0.6404 -0.2170 -0.1602
 8443SOL     H251529   6.614   7.263   7.971 -0.5698 -0.3496 -0.0035
 8444SOL    OH251530   1.676   3.981   1.060  0.3381 -0.1392  0.2103
 8444SOL     H151531   1.685   4.054   1.121 -2.2583  1.5693 -1.3326
 8444SOL     H251532   1.582   3.960   1.063  0.9720 -3.1513  0.2948
 8445SOL    OH251533   4.016   1.562   6.066 -0.2023  0.3941 -0.3313
 8445SOL     H151534   4.052   1.563   5.977 -0.2343 -1.5184 -0.4000
 8445SOL     H251535   4.091   1.584   6.122  0.3763 -0.6471 -0.6827
 8446SOL    OH251536   0.245   5.740   0.394 -0.0355  0.5587  0.5677
 8446SOL     H151537   0.191   5.714   0.468  0.7981 -0.4924  0.8316
 8446SOL     H251538   0.218   5.683   0.322 -0.8360  1.5666  0.0498
 8447SOL    OH251539   2.899   7.514   6.093  0.2539  0.5499 -0.1351
 8447SOL     H151540   2.938   7.498   6.008 -0.7821  0.3207 -0.5682
 8447SOL     H251541   2.813   7.473   6.089 -0.2279  1.4543  0.6485
 8448SOL    OH251542   5.972   0.127   0.809 -0.1810  0.5240 -0.2600
 8448SOL     H151543   6.064   0.108   0.790 -0.4067 -0.9982  0.0873
 8448SOL     H251544   5.932   0.133   0.722 -0.0827 -0.5898 -0.3969
 8449SOL    OH251545   0.484   4.773   1.499  0.7757 -0.4230 -0.4855
 8449SOL     H151546   0.457   4.694   1.452  2.0476  0.5349 -2.9110
 8449SOL     H251547   0.553   4.811   1.445  0.4853  2.1352  0.8480
 8450SOL    OH251548   6.577   7.136   2.205 -0.3913 -0.1034 -0.5482
 8450SOL     H151549   6.532   7.116   2.123  0.9775  0.0202 -1.3411
 8450SOL     H251550   6.643   7.067   2.214 -0.1431  0.2154  0.1507
 8451SOL    OH251551   5.781   3.887   0.306  0.5774 -0.4118 -0.0906
 8451SOL     H151552   5.810   3.822   0.242  2.4577 -1.7644  2.0517
 8451SOL     H251553   5.824   3.968   0.280  2.8851 -1.4017  0.5599
 8452SOL    OH251554   0.282   1.604   7.802 -0.5220 -0.2414 -0.1863
 8452SOL     H151555   0.201   1.591   7.753 -0.0748  1.0389 -1.2681
 8452SOL     H251556   0.254   1.607   7.893 -1.7711  0.7493 -0.5861
 8453SOL    OH251557   3.043   5.146   7.090  0.2434 -0.0453  0.2082
 8453SOL     H151558   3.026   5.079   7.156 -0.0858  0.9503  1.1570
 8453SOL     H251559   3.079   5.098   7.015  0.4465 -1.2109  1.0398
 8454SOL    OH251560   7.391   7.578   8.190 -0.3886 -0.1399  0.1595
 8454SOL     H151561   7.443   7.658   8.183 -1.7748  0.8924  1.2774
 8454SOL     H251562   7.413   7.528   8.111  0.0534  1.6030 -0.8544
 8455SOL    OH251563   5.954   4.141   0.388 -0.3142 -0.1939 -0.3647
 8455SOL     H151564   6.019   4.208   0.410 -0.8454  0.1918  0.0548
 8455SOL     H251565   5.997   4.087   0.321  0.6331 -0.2678  0.2951
 8456SOL    OH251566   6.250   3.586   0.389  0.1991  0.3115  0.1721
 8456SOL     H151567   6.176   3.554   0.441 -1.4775  0.1296 -2.2542
 8456SOL     H251568   6.252   3.530   0.312  2.6500  0.5670 -0.0056
 8457SOL    OH251569   3.846   2.443   0.484  0.0487  0.2246  0.3565
 8457SOL     H151570   3.901   2.508   0.527 -0.1793 -0.1293  1.1871
 8457SOL     H251571   3.897   2.362   0.488 -1.0461 -0.3965  2.2549
 8458SOL    OH251572   2.419   5.915   6.512 -0.2825  0.4194 -0.5150
 8458SOL     H151573   2.376   5.886   6.432 -0.2171 -0.2826 -0.2943
 8458SOL     H251574   2.353   5.970   6.555  0.3972  2.4695 -2.0297
 8459SOL    OH251575   2.030   6.933   6.900 -0.3741 -0.5803 -0.0528
 8459SOL     H151576   1.970   6.861   6.920  0.1905 -1.1534 -0.4170
 8459SOL     H251577   1.978   6.993   6.846 -0.7797 -0.8081  0.0797
 8460SOL    OH251578   4.286   3.502   7.321 -0.6769  0.0636  0.3008
 8460SOL     H151579   4.272   3.495   7.227  1.2719 -1.0646  0.0687
 8460SOL     H251580   4.225   3.438   7.359 -0.5746 -0.3875 -0.2839
 8461SOL    OH251581   5.188   6.544   6.191  0.0965  0.1133 -0.1977
 8461SOL     H151582   5.243   6.524   6.115  1.7386  1.3246  0.6330
 8461SOL     H251583   5.181   6.639   6.192 -0.3121  0.0803  0.8865
 8462SOL    OH251584   7.973   0.099   0.810 -0.2717 -0.4860  1.0243
 8462SOL     H151585   7.968   0.193   0.826  3.3156 -0.0038 -0.2089
 8462SOL     H251586   7.899   0.080   0.752 -0.5043  1.7247  0.5613
 8463SOL    OH251587   7.141   5.605   1.776 -0.9007  0.2471  0.5432
 8463SOL     H151588   7.092   5.655   1.709  0.3035 -0.7152 -1.0847
 8463SOL     H251589   7.195   5.671   1.820 -1.6914  0.8899  0.5596
 8464SOL    OH251590   1.405   1.766   0.496  0.5452  0.1651 -0.1648
 8464SOL     H151591   1.455   1.813   0.564  2.4065 -1.0039 -0.6716
 8464SOL     H251592   1.403   1.826   0.422  0.3914  0.5877  0.1780
 8465SOL    OH251593   2.063   6.142   6.028 -0.3440 -0.2655 -0.5572
 8465SOL     H151594   2.059   6.048   6.016 -1.1183 -0.4824  1.3485
 8465SOL     H251595   2.149   6.167   5.993  1.1282 -2.0932  1.6733
 8466SOL    OH251596   4.690   3.848   2.055 -0.5902 -0.0668  0.0586
 8466SOL     H151597   4.735   3.930   2.036  0.9986 -0.8225  0.4440
 8466SOL     H251598   4.713   3.828   2.145 -0.1805 -1.4214 -0.3331
 8467SOL    OH251599   3.707   5.889   7.674  0.2227  0.0982  0.2718
 8467SOL     H151600   3.756   5.813   7.643 -0.1748  0.0213 -0.1738
 8467SOL     H251601   3.758   5.964   7.643 -0.1467  0.0234 -0.5472
 8468SOL    OH251602   2.186   1.420   5.893  0.3791  0.5803 -0.4859
 8468SOL     H151603   2.275   1.436   5.927  0.4001  1.6740 -1.0214
 8468SOL     H251604   2.200   1.392   5.803  0.2295 -0.3753 -0.2133
 8469SOL    OH251605   1.888   7.210   0.920 -0.0094  0.4625  0.4638
 8469SOL     H151606   1.876   7.117   0.904  2.1802 -0.1708  2.3510
 8469SOL     H251607   1.799   7.247   0.913 -1.0123 -1.8654  0.4556
 8470SOL    OH251608   2.420   6.487   0.885  0.3334 -0.3185 -0.0063
 8470SOL     H151609   2.515   6.480   0.888  0.3579 -0.5594 -1.0124
 8470SOL     H251610   2.402   6.579   0.866  0.2459  0.5630  3.8624
 8471SOL    OH251611   3.860   2.666   1.080 -0.1470  0.2051  0.1854
 8471SOL     H151612   3.844   2.731   1.013 -0.9882  2.3636  2.3991
 8471SOL     H251613   3.822   2.703   1.160  0.3910 -2.4659  1.7727
 8472SOL    OH251614   6.167   5.040   7.424  0.7536  0.5599 -0.3487
 8472SOL     H151615   6.230   5.102   7.388  2.8736 -0.2891  1.7560
 8472SOL     H251616   6.133   4.993   7.348 -0.0788  3.5005 -1.8656
 8473SOL    OH251617   1.161   0.483   2.151  0.3183 -0.0770  0.2867
 8473SOL     H151618   1.230   0.421   2.129  1.2909  1.1301 -0.1813
 8473SOL     H251619   1.089   0.461   2.092 -0.5492 -2.7320  2.2636
 8474SOL    OH251620   5.214   4.262   1.462  0.4212 -0.4824 -0.0208
 8474SOL     H151621   5.196   4.181   1.508  0.0643 -0.1933  0.3513
 8474SOL     H251622   5.244   4.323   1.530  0.2461 -0.1646 -0.2244
 8475SOL    OH251623   3.138   2.956   8.167  0.0733  0.7362  0.2288
 8475SOL     H151624   3.081   3.024   8.202 -0.2266  0.7394 -0.2572
 8475SOL     H251625   3.195   2.932   8.240  0.2273  1.5590  0.3898
 8476SOL    OH251626   0.767   1.071   2.378 -0.1314 -0.0855 -0.2231
 8476SOL     H151627   0.679   1.052   2.410 -0.9681 -0.1258 -2.5245
 8476SOL     H251628   0.807   0.986   2.364 -0.2545 -0.0780 -0.6204
 8477SOL    OH251629   5.616   7.466   1.560 -0.8338 -0.3364  0.0444
 8477SOL     H151630   5.678   7.539   1.563 -2.1190  0.7752 -0.1754
 8477SOL     H251631   5.537   7.503   1.521 -1.7307 -1.6742  0.5525
 8478SOL    OH251632   4.675   0.519   0.614 -0.0973  0.3422 -0.2817
 8478SOL     H151633   4.682   0.436   0.660 -1.6897  0.4366  0.1648
 8478SOL     H251634   4.583   0.544   0.623 -0.0198  1.2943 -1.8837
 8479SOL    OH251635   2.482   1.412   6.420 -0.4010  0.8642  0.0803
 8479SOL     H151636   2.475   1.322   6.454  0.5803 -0.0415 -1.9971
 8479SOL     H251637   2.391   1.443   6.415 -0.6074  0.8403  2.9290
 8480SOL    OH251638   2.973   4.322   0.300  0.2987  0.4667 -0.3125
 8480SOL     H151639   2.941   4.410   0.320 -2.0288 -0.0608 -1.4342
 8480SOL     H251640   3.006   4.328   0.210 -1.0780 -0.0595 -0.8809
 8481SOL    OH251641   7.401   4.923   0.599 -0.7783  0.0189  0.6926
 8481SOL     H151642   7.496   4.923   0.590 -0.6955 -0.3155  1.5066
 8481SOL     H251643   7.369   4.898   0.513 -0.1432  0.5670  0.2884
 8482SOL    OH251644   6.061   6.643   0.657 -0.2443 -0.7693  0.3062
 8482SOL     H151645   6.098   6.716   0.606 -1.2403  0.0558  0.7367
 8482SOL     H251646   6.063   6.568   0.597  2.6163 -0.9021  0.4893
 8483SOL    OH251647   0.303   1.965   2.433 -0.0098 -0.1697  0.6115
 8483SOL     H151648   0.238   2.034   2.419  0.6803  0.2982 -0.3399
 8483SOL     H251649   0.349   1.992   2.513  0.2513  0.4723  0.2483
 8484SOL    OH251650   6.549   3.200   0.390  0.5978  0.3359  0.5799
 8484SOL     H151651   6.502   3.259   0.331 -1.4714 -1.7962  0.0033
 8484SOL     H251652   6.494   3.197   0.469  1.3000  0.1045  1.0654
 8485SOL    OH251653   0.248   7.724   7.322 -0.1676  0.0686 -0.6327
 8485SOL     H151654   0.185   7.791   7.297 -1.2307 -0.7242 -0.0942
 8485SOL     H251655   0.323   7.773   7.355 -1.2176  0.9870  0.4124
 8486SOL    OH251656   7.892   2.780   2.355  0.1962  0.1663 -0.4084
 8486SOL     H151657   7.810   2.752   2.396 -0.1031 -1.1792 -1.8445
 8486SOL     H251658   7.885   2.748   2.264  3.2625 -2.0199  0.0360
 8487SOL    OH251659   6.979   5.746   7.394  0.2603 -0.3288 -0.1644
 8487SOL     H151660   7.058   5.794   7.418  0.5239 -0.5523 -0.5845
 8487SOL     H251661   6.984   5.736   7.299 -1.0777  1.0774 -0.4040
 8488SOL    OH251662   5.462   6.738   7.258 -0.4808 -0.2623  0.0555
 8488SOL     H151663   5.387   6.693   7.297  1.3503 -2.5873  1.0123
 8488SOL     H251664   5.450   6.830   7.281 -2.5508 -0.7586  0.9810
 8489SOL    OH251665   7.943   3.012   0.097 -0.3581  0.1206  0.2469
 8489SOL     H151666   7.848   3.020   0.105 -0.1275  2.2548  1.1731
 8489SOL     H251667   7.972   2.978   0.182 -0.1266  1.1713  0.5943
 8490SOL    OH251668   6.299   0.733   6.754 -0.8957  0.4129  0.7442
 8490SOL     H151669   6.254   0.817   6.762  0.0810  1.0063  0.1272
 8490SOL     H251670   6.381   0.745   6.801 -1.3840 -0.6874  1.9111
 8491SOL    OH251671   3.883   6.422   2.358  0.5314  0.3828 -0.0394
 8491SOL     H151672   3.833   6.483   2.412 -2.0154 -1.7331  0.0992
 8491SOL     H251673   3.845   6.336   2.376  2.4771 -0.9562 -1.9635
 8492SOL    OH251674   3.579   2.568   5.535  0.0395  0.4332  0.3433
 8492SOL     H151675   3.549   2.657   5.554  1.2941  0.9681 -0.1251
 8492SOL     H251676   3.499   2.517   5.524 -0.6860  1.5240  0.5262
 8493SOL    OH251677   1.083   2.379   0.248  0.1407  0.5830 -0.1805
 8493SOL     H151678   1.165   2.415   0.284  1.5669 -1.5312 -1.2230
 8493SOL     H251679   1.084   2.287   0.274 -0.2400 -0.2744 -3.0357
 8494SOL    OH251680   6.525   4.454   1.650 -0.3582  0.6529  0.3105
 8494SOL     H151681   6.533   4.549   1.643  0.3246  0.4932 -1.1611
 8494SOL     H251682   6.543   4.421   1.562 -2.3664 -0.7258  0.3788
 8495SOL    OH251683   4.281   4.043   7.937  0.5790  0.1518 -0.1237
 8495SOL     H151684   4.267   4.041   8.032  2.2338  0.2060  0.1270
 8495SOL     H251685   4.346   4.112   7.924  0.6103 -0.0896 -1.2710
 8496SOL    OH251686   6.996   3.066   0.710  0.4717  0.1287  0.8938
 8496SOL     H151687   7.037   3.132   0.654  1.3636  0.6361  2.1228
 8496SOL     H251688   7.020   3.092   0.799 -0.2479 -1.1265  1.4653
 8497SOL    OH251689   5.336   6.705   7.626 -0.1487 -0.0325  0.3035
 8497SOL     H151690   5.428   6.683   7.642 -0.5658 -1.1380  1.2226
 8497SOL     H251691   5.316   6.664   7.542  0.0370 -0.2741  0.3772
 8498SOL    OH251692   2.141   3.301   1.918 -0.4390 -0.0025  0.1644
 8498SOL     H151693   2.054   3.342   1.912 -0.0985  0.9373  1.5117
 8498SOL     H251694   2.201   3.371   1.895  0.1977  0.4920  3.1606
 8499SOL    OH251695   2.287   5.068   1.638 -0.1189 -0.1232 -0.1795
 8499SOL     H151696   2.344   5.046   1.564  1.7036  3.8196 -0.0439
 8499SOL     H251697   2.246   5.150   1.613  0.3117  1.1517  3.0711
 8500SOL    OH251698   0.159   3.131   0.652  0.0551 -0.0185  0.2972
 8500SOL     H151699   0.108   3.185   0.593 -1.1976 -0.1530  1.2167
 8500SOL     H251700   0.213   3.076   0.595  0.5049  1.4062 -0.6511
 8501SOL    OH251701   5.960   2.482   7.499  0.4977 -0.2472  0.0130
 8501SOL     H151702   5.949   2.401   7.548 -0.2947 -0.4310 -0.4596
 8501SOL     H251703   5.913   2.467   7.417 -0.3278  0.9739  0.2472
 8502SOL    OH251704   7.194   2.481   7.013 -0.1544  0.4516 -0.4062
 8502SOL     H151705   7.179   2.470   7.107  1.0114 -0.5655 -0.3254
 8502SOL     H251706   7.284   2.451   7.000 -0.7307 -0.6347 -2.0500
 8503SOL    OH251707   1.958   1.065   1.891  0.1930 -0.4465 -0.2011
 8503SOL     H151708   1.907   1.095   1.966  0.9653 -2.3411  1.1241
 8503SOL     H251709   2.048   1.061   1.924  0.6412 -0.6935 -1.4314
 8504SOL    OH251710   2.180   7.131   8.080 -0.3346  0.3286  0.4366
 8504SOL     H151711   2.232   7.137   7.999 -1.4057 -0.9724 -0.3542
 8504SOL     H251712   2.089   7.131   8.050 -0.7259 -0.7701  1.5988
 8505SOL    OH251713   2.449   1.374   5.966  0.6254  0.2665  0.5379
 8505SOL     H151714   2.518   1.439   5.984  1.3351 -0.3648  0.1301
 8505SOL     H251715   2.494   1.290   5.972 -0.0930 -0.1426  0.1502
 8506SOL    OH251716   5.811   3.278   7.504 -0.1030 -0.3470 -0.0411
 8506SOL     H151717   5.820   3.278   7.599  1.5109  1.5965 -0.1751
 8506SOL     H251718   5.848   3.194   7.477 -1.1337 -1.1797  1.0783
 8507SOL    OH251719   1.506   5.166   2.614  0.4487  0.0854  0.4712
 8507SOL     H151720   1.523   5.259   2.599 -0.4569  0.0006 -1.1472
 8507SOL     H251721   1.422   5.150   2.572  1.9143 -2.0726 -1.7346
 8508SOL    OH251722   2.031   2.864   0.544 -0.3416 -0.4196  0.1491
 8508SOL     H151723   2.097   2.800   0.517 -0.8688 -0.3426 -1.3368
 8508SOL     H251724   2.083   2.937   0.578  0.3839 -0.1755 -1.4240
 8509SOL    OH251725   2.541   0.548   0.773 -0.9067  0.3799 -0.4678
 8509SOL     H151726   2.520   0.623   0.717 -0.3870  1.4785  0.7851
 8509SOL     H251727   2.636   0.551   0.781 -0.6765 -1.6084 -2.0203
 8510SOL    OH251728   1.758   4.864   7.870  0.3372  0.3048  0.4844
 8510SOL     H151729   1.787   4.775   7.847 -0.8763  0.8540 -3.6015
 8510SOL     H251730   1.792   4.878   7.959  3.3813 -2.9889 -0.0308
 8511SOL    OH251731   5.852   4.086   1.607  0.2412  0.0156 -0.4125
 8511SOL     H151732   5.844   4.132   1.691 -2.2514 -0.7639 -0.1828
 8511SOL     H251733   5.761   4.072   1.579  1.0332 -1.1125 -2.4776
 8512SOL    OH251734   4.006   3.612   7.763  0.2212  0.6847 -0.3656
 8512SOL     H151735   4.027   3.520   7.752  3.0918  1.1389  0.6997
 8512SOL     H251736   3.918   3.613   7.801 -0.6398 -1.5078 -2.1994
 8513SOL    OH251737   3.726   4.275   6.547  0.0011  0.2721  0.2747
 8513SOL     H151738   3.729   4.370   6.538 -1.1945  0.1555 -1.6037
 8513SOL     H251739   3.661   4.247   6.483 -0.3009 -1.7432  1.4141
 8514SOL    OH251740   3.261   5.818   1.715 -0.3447  0.4231 -0.0792
 8514SOL     H151741   3.239   5.726   1.731 -1.5104  0.6337 -0.3958
 8514SOL     H251742   3.236   5.833   1.624 -0.0130  1.0079 -0.0733
 8515SOL    OH251743   1.296   7.507   1.127 -0.3415 -0.0268  0.4483
 8515SOL     H151744   1.244   7.427   1.116  1.4447 -1.5375  2.5664
 8515SOL     H251745   1.293   7.549   1.041 -3.5415 -0.9738  0.0309
 8516SOL    OH251746   3.034   5.757   5.531  0.0504 -0.0011 -0.7501
 8516SOL     H151747   2.947   5.738   5.495  0.4422 -0.7275 -1.3248
 8516SOL     H251748   3.091   5.766   5.455  0.6634 -0.4265 -0.3540
 8517SOL    OH251749   7.860   4.696   6.929 -0.8801 -0.3669 -0.5543
 8517SOL     H151750   7.771   4.662   6.941 -0.3243 -1.2523  1.3783
 8517SOL     H251751   7.864   4.773   6.986  0.6956 -2.4794  2.2936
 8518SOL    OH251752   6.901   1.739   7.424 -0.1135 -0.1339 -0.0034
 8518SOL     H151753   6.909   1.682   7.500  2.5517 -0.6519 -0.6097
 8518SOL     H251754   6.864   1.820   7.457  0.6109 -0.5144  1.7730
 8519SOL    OH251755   1.908   0.212   6.976 -0.0882  0.3012 -0.6186
 8519SOL     H151756   1.842   0.158   7.020  1.9748 -0.1489  2.0542
 8519SOL     H251757   1.965   0.149   6.931  0.9539  0.3854  0.5607
 8520SOL    OH251758   2.231   3.778   0.062 -0.6049 -0.1966 -0.0592
 8520SOL     H151759   2.224   3.867   0.097  0.6550  0.1733 -0.6997
 8520SOL     H251760   2.142   3.744   0.064 -1.0559  0.9937  0.4269
 8521SOL    OH251761   6.723   3.250   7.542  0.1403  0.1690  0.4336
 8521SOL     H151762   6.658   3.184   7.566 -0.0453  0.2294  0.0999
 8521SOL     H251763   6.803   3.200   7.525  0.1331  0.0776  0.6668
 8522SOL    OH251764   4.006   3.411   6.593  0.7219  0.3318  0.1970
 8522SOL     H151765   3.918   3.448   6.591  0.2684 -0.7782 -0.5172
 8522SOL     H251766   4.022   3.393   6.686  0.8436  2.0324  0.5275
 8523SOL    OH251767   1.968   3.906   1.368  0.0823  0.4906 -0.4478
 8523SOL     H151768   1.994   3.970   1.435  0.9329 -1.6382  1.3077
 8523SOL     H251769   2.049   3.859   1.348 -1.0568 -1.7706  0.1907
 8524SOL    OH251770   4.256   6.349   0.969 -0.2407  0.6353 -0.3444
 8524SOL     H151771   4.338   6.398   0.966 -0.2650  0.7126  0.1951
 8524SOL     H251772   4.206   6.380   0.894  0.7612 -0.3513 -1.4419
 8525SOL    OH251773   7.294   6.034   6.295 -0.1840 -0.9130 -0.0419
 8525SOL     H151774   7.284   6.039   6.200  1.3832  1.0313 -0.1450
 8525SOL     H251775   7.380   5.992   6.307  0.4963  0.5883  0.4597
 8526SOL    OH251776   4.411   6.944   7.909  0.7299 -0.3665  0.4468
 8526SOL     H151777   4.429   6.955   8.002  0.5746 -0.8926  0.5440
 8526SOL     H251778   4.481   6.992   7.865  1.6029 -1.2743  0.8252
 8527SOL    OH251779   0.218   3.007   0.388 -0.4791 -0.2668 -0.2792
 8527SOL     H151780   0.206   3.098   0.360  0.5969 -0.1859 -0.5135
 8527SOL     H251781   0.132   2.967   0.378 -0.8199  0.5751 -0.7538
 8528SOL    OH251782   5.236   0.284   1.691  0.5447 -0.3127  0.0067
 8528SOL     H151783   5.173   0.282   1.763 -0.5144 -2.5179 -0.9216
 8528SOL     H251784   5.245   0.377   1.669 -1.9532  0.0870  0.5368
 8529SOL    OH251785   7.650   6.480   0.476 -0.2664 -0.2046 -0.2473
 8529SOL     H151786   7.658   6.430   0.558  0.7540 -1.9753 -1.3797
 8529SOL     H251787   7.734   6.524   0.467 -0.9269  1.2103  0.4098
 8530SOL    OH251788   1.963   4.787   7.150 -0.1057  0.2729  0.0791
 8530SOL     H151789   1.895   4.850   7.125  0.2106  1.4136  1.9611
 8530SOL     H251790   2.045   4.834   7.134  0.2023 -0.4471 -0.4918
 8531SOL    OH251791   3.159   0.375   1.371 -0.1896  0.1756  0.1728
 8531SOL     H151792   3.150   0.468   1.351 -0.4968  0.3065  0.8900
 8531SOL     H251793   3.069   0.342   1.369 -0.1874  0.1156  0.9509
 8532SOL    OH251794   0.411   3.298   1.699 -0.6362 -0.0475  0.1156
 8532SOL     H151795   0.382   3.389   1.696 -1.2710 -0.2460  0.2557
 8532SOL     H251796   0.332   3.248   1.720 -0.1969 -0.5860  0.5038
 8533SOL    OH251797   1.647   3.100   7.579 -0.2669  0.0674 -0.4657
 8533SOL     H151798   1.740   3.122   7.590  0.1823 -2.0225  0.1723
 8533SOL     H251799   1.602   3.184   7.582  1.4179  0.9487  1.2716
 8534SOL    OH251800   0.729   1.053   0.254 -0.6510  0.5139 -0.2377
 8534SOL     H151801   0.754   1.120   0.318  0.2775 -0.0844  0.0348
 8534SOL     H251802   0.807   0.998   0.246 -1.2450 -0.2416 -0.8294
 8535SOL    OH251803   2.307   6.163   1.243  0.2196 -0.0707  0.3302
 8535SOL     H151804   2.275   6.220   1.173 -0.6904  0.5178  1.2137
 8535SOL     H251805   2.294   6.074   1.210 -3.4665  0.0984  1.0992
 8536SOL    OH251806   2.430   2.597   6.611 -0.6362 -0.0422 -0.0727
 8536SOL     H151807   2.478   2.516   6.630 -1.2324 -0.8314 -1.8370
 8536SOL     H251808   2.363   2.571   6.547  0.2521  2.1737 -1.9703
 8537SOL    OH251809   4.028   2.832   6.484  0.5450  0.5141 -0.5604
 8537SOL     H151810   4.092   2.858   6.550 -0.0835  0.5902  0.0252
 8537SOL     H251811   3.967   2.775   6.531 -0.9131  1.9888 -0.6339
 8538SOL    OH251812   6.739   3.497   0.058  0.0971  0.4741 -0.1922
 8538SOL     H151813   6.683   3.555   0.109 -2.3607 -1.6556 -0.4248
 8538SOL     H251814   6.691   3.481  -0.023  0.8597 -1.6573 -0.2636
 8539SOL    OH251815   2.553   0.153   0.600  0.0856 -0.2586 -0.5216
 8539SOL     H151816   2.493   0.149   0.525 -2.3569 -0.3696  1.3482
 8539SOL     H251817   2.516   0.221   0.656  1.8983 -0.1451  0.5556
 8540SOL    OH251818   7.807   2.812   1.388  0.6750 -0.1024 -0.2880
 8540SOL     H151819   7.894   2.814   1.427  1.7061 -0.4051 -2.5400
 8540SOL     H251820   7.807   2.885   1.326 -1.1591  0.7517  0.6708
 8541SOL    OH251821   1.076   2.882   8.199 -0.1024  0.1168 -0.1920
 8541SOL     H151822   0.990   2.924   8.210  0.1242  0.5499 -0.0828
 8541SOL     H251823   1.075   2.810   8.262 -0.8198 -0.5710 -0.9704
 8542SOL    OH251824   7.816   0.044   0.349  0.7485 -0.2581 -0.2944
 8542SOL     H151825   7.730   0.007   0.329  0.7410  0.4557 -1.6369
 8542SOL     H251826   7.828   0.026   0.442 -1.4250  0.7654  0.2276
 8543SOL    OH251827   3.144   4.314   0.765 -0.1883  0.0333  0.4662
 8543SOL     H151828   3.162   4.369   0.688  0.8044 -0.8261  0.0756
 8543SOL     H251829   3.153   4.224   0.732 -0.0817 -0.3408  1.5202
 8544SOL    OH251830   3.287   2.715   0.977  0.4222 -1.0119  0.2144
 8544SOL     H151831   3.280   2.793   0.922  3.1378  0.1988  1.4804
 8544SOL     H251832   3.215   2.723   1.039  2.0324  1.8133  1.8397
 8545SOL    OH251833   4.842   1.762   1.163  0.9201 -0.0793  0.2467
 8545SOL     H151834   4.854   1.853   1.136 -0.2915 -0.4411 -1.6140
 8545SOL     H251835   4.878   1.758   1.251  1.2948  2.1263  0.2165
 8546SOL    OH251836   6.168   6.076   1.036 -0.1561  0.0260  0.0776
 8546SOL     H151837   6.204   6.080   1.125 -1.3884  0.6020  0.5479
 8546SOL     H251838   6.217   6.005   0.994 -0.9493 -1.6011  1.8401
 8547SOL    OH251839   5.439   7.413   8.016 -0.0984  0.1908 -0.4585
 8547SOL     H151840   5.436   7.362   8.097 -1.3213 -0.2140 -0.7429
 8547SOL     H251841   5.486   7.493   8.040  0.5537 -0.4252  0.3620
 8548SOL    OH251842   7.215   6.767   5.740 -0.0414  0.5208  0.0466
 8548SOL     H151843   7.247   6.705   5.675 -0.7554 -0.5564  0.6829
 8548SOL     H251844   7.293   6.807   5.777  0.6061 -1.9905  1.5168
 8549SOL    OH251845   7.943   2.139   6.304  0.2711  0.3082 -0.4541
 8549SOL     H151846   7.934   2.160   6.397  0.0673 -0.3800 -0.3075
 8549SOL     H251847   7.876   2.072   6.288  0.4796  0.2264 -1.0293
 8550SOL    OH251848   6.875   0.768   5.689 -0.4345  0.0905 -0.1805
 8550SOL     H151849   6.848   0.678   5.708 -1.5542  0.2355 -1.0559
 8550SOL     H251850   6.871   0.812   5.774 -1.3979 -0.3030 -0.0089
 8551SOL    OH251851   3.587   5.148   2.015 -0.2271  0.0245 -0.1398
 8551SOL     H151852   3.602   5.132   1.922  0.0904  0.1042 -0.1048
 8551SOL     H251853   3.581   5.061   2.054 -1.6848 -0.0107 -0.4396
 8552SOL    OH251854   0.721   1.748   1.511 -1.1291  0.0495 -0.0317
 8552SOL     H151855   0.677   1.733   1.427 -1.8946  1.8803  0.0199
 8552SOL     H251856   0.649   1.762   1.573 -0.5470 -0.5775  0.7946
 8553SOL    OH251857   2.344   4.088   0.168 -0.4500  0.3835 -0.4675
 8553SOL     H151858   2.315   4.136   0.090 -1.5349 -0.1414 -0.3924
 8553SOL     H251859   2.322   4.145   0.241  0.7912  0.9832 -0.5502
 8554SOL    OH251860   3.842   6.182   0.750  0.6987  0.0241  0.3248
 8554SOL     H151861   3.829   6.247   0.682 -1.4551 -0.7886 -0.0539
 8554SOL     H251862   3.896   6.227   0.816 -0.1263  1.9285 -0.2769
 8555SOL    OH251863   3.891   2.106   8.254 -0.1564  0.4985 -0.6572
 8555SOL     H151864   3.874   2.095   8.161  0.8188 -0.0437 -0.7725
 8555SOL     H251865   3.832   2.043   8.297  0.3541 -0.1997 -0.9728
 8556SOL    OH251866   2.855   2.124   7.765  0.1800 -0.1138  0.1857
 8556SOL     H151867   2.806   2.068   7.704 -0.0681 -0.6646  0.8841
 8556SOL     H251868   2.795   2.196   7.785  0.1373 -0.1086  0.0423
 8557SOL    OH251869   7.111   4.390   0.477  0.4137 -0.1500  0.0442
 8557SOL     H151870   7.079   4.349   0.397 -1.1846  2.2253 -0.5709
 8557SOL     H251871   7.206   4.380   0.472  0.2278 -1.4463 -1.3537
 8558SOL    OH251872   3.840   5.209   7.747 -0.3280 -0.2856  0.4592
 8558SOL     H151873   3.858   5.187   7.655  0.1717 -5.1243  1.5651
 8558SOL     H251874   3.745   5.223   7.749 -0.2861  0.2863 -0.8827
 8559SOL    OH251875   5.859   2.800   1.778 -0.5469 -0.1564  0.3679
 8559SOL     H151876   5.807   2.729   1.815 -1.7836  1.1909  1.2566
 8559SOL     H251877   5.815   2.821   1.695  0.6567 -1.3622 -0.6096
 8560SOL    OH251878   6.138   5.952   0.719 -0.3902  0.2216  0.1531
 8560SOL     H151879   6.148   5.864   0.757 -2.7100  0.5075  1.5108
 8560SOL     H251880   6.228   5.984   0.709  0.3790 -1.1221  2.4374
 8561SOL    OH251881   2.582   2.690   7.597 -0.3034 -0.0571  0.1596
 8561SOL     H151882   2.506   2.633   7.582 -0.5062  0.7904 -2.2328
 8561SOL     H251883   2.655   2.642   7.559 -0.2974  0.7537 -0.8952
 8562SOL    OH251884   1.388   6.575   6.450 -0.4138 -0.1924  0.0197
 8562SOL     H151885   1.420   6.503   6.395 -1.0799  1.7902 -3.1400
 8562SOL     H251886   1.466   6.626   6.471 -0.2477 -0.5415  0.2443
 8563SOL    OH251887   7.778   7.935   7.073  0.3858 -0.0527 -0.0880
 8563SOL     H151888   7.687   7.943   7.101  0.5508  1.9384 -0.0460
 8563SOL     H251889   7.826   7.989   7.136  1.8138 -2.3592  0.8716
 8564SOL    OH251890   0.590   6.396   0.593 -0.4621 -0.1199  0.0077
 8564SOL     H151891   0.674   6.377   0.550 -0.2821  0.7273 -0.0082
 8564SOL     H251892   0.611   6.461   0.660 -1.0336 -0.2431  0.3140
 8565SOL    OH251893   0.637   6.686   0.701  0.1601 -0.5056 -0.1172
 8565SOL     H151894   0.668   6.758   0.646 -1.0885 -0.3791 -0.6801
 8565SOL     H251895   0.716   6.641   0.729  0.9814  1.1809  0.3763
 8566SOL    OH251896   4.370   2.548   1.338  0.4434  0.4516  0.4425
 8566SOL     H151897   4.310   2.476   1.355  2.2253 -1.5165 -1.2704
 8566SOL     H251898   4.372   2.598   1.419 -1.8839 -0.6228  1.2036
 8567SOL    OH251899   7.756   7.146   6.462  0.1286  0.3918 -0.4438
 8567SOL     H151900   7.696   7.199   6.409  0.6694  1.1765 -0.2780
 8567SOL     H251901   7.813   7.210   6.504  0.3822 -0.2924  0.2585
 8568SOL    OH251902   5.173   1.419   0.128 -0.1072 -0.2459 -0.1613
 8568SOL     H151903   5.126   1.426   0.211  1.3500  0.7653  0.6103
 8568SOL     H251904   5.240   1.353   0.143 -0.1094 -0.3777 -0.6924
 8569SOL    OH251905   5.330   5.685   6.955  0.4363 -0.2315 -0.0188
 8569SOL     H151906   5.360   5.701   7.044  1.4497  1.1189 -0.5846
 8569SOL     H251907   5.234   5.683   6.962  0.3562  3.3830  0.5723
 8570SOL    OH251908   2.556   2.905   0.130  0.5632 -0.2950  0.1530
 8570SOL     H151909   2.644   2.884   0.099  0.6267  2.0959 -1.4556
 8570SOL     H251910   2.547   2.999   0.114 -2.3038 -0.5139  0.2494
 8571SOL    OH251911   5.400   7.206   8.205  0.0870 -0.5807  0.1822
 8571SOL     H151912   5.433   7.198   8.295  0.2873 -0.5173  0.1159
 8571SOL     H251913   5.336   7.136   8.197 -2.1319  1.2575  1.3253
 8572SOL    OH251914   0.505   3.983   5.830 -0.2808 -0.1843 -0.5142
 8572SOL     H151915   0.486   3.964   5.922  1.6661 -0.3176 -0.1015
 8572SOL     H251916   0.420   3.980   5.786 -0.9111 -3.0082  0.7711
 8573SOL    OH251917   0.445   0.448   0.546 -0.1542 -0.3307 -0.0741
 8573SOL     H151918   0.510   0.390   0.504 -0.4759 -0.7735  0.0360
 8573SOL     H251919   0.493   0.487   0.619  0.0901 -0.3979 -0.1958
 8574SOL    OH251920   1.406   5.031   0.497 -0.0030  0.3161 -0.2148
 8574SOL     H151921   1.329   5.044   0.442 -1.4493  0.4275  1.7769
 8574SOL     H251922   1.401   5.100   0.563  2.1811  0.7409 -0.4465
 8575SOL    OH251923   6.338   2.546   5.813 -0.2009 -0.4179 -0.2738
 8575SOL     H151924   6.325   2.482   5.883  0.1519 -0.2258 -0.0271
 8575SOL     H251925   6.342   2.495   5.733 -3.5432 -0.4135 -0.5037
 8576SOL    OH251926   2.590   4.990   6.464  0.1240  0.3408 -1.0133
 8576SOL     H151927   2.666   4.944   6.500 -0.9188 -0.2678  0.4851
 8576SOL     H251928   2.560   4.936   6.391  0.5425  0.0770 -0.9885
 8577SOL    OH251929   0.133   7.006   5.406  0.3948  0.0461  0.5114
 8577SOL     H151930   0.079   6.934   5.436  0.0135 -0.2556 -0.8515
 8577SOL     H251931   0.223   6.972   5.408  0.1224 -0.8139 -1.0491
 8578SOL    OH251932   5.132   0.106   0.578 -0.1009  0.1309  0.0919
 8578SOL     H151933   5.055   0.148   0.616  0.0489  0.0071  0.5353
 8578SOL     H251934   5.128   0.016   0.610 -1.3504 -0.6839 -2.2062
 8579SOL    OH251935   6.988   1.458   7.564 -0.0237 -0.6447  0.2869
 8579SOL     H151936   6.991   1.532   7.624  1.1411  1.0974 -1.8779
 8579SOL     H251937   6.896   1.433   7.562 -0.1082 -0.6532  2.6677
 8580SOL    OH251938   0.546   4.245   7.810  0.3090 -0.2527 -0.1453
 8580SOL     H151939   0.492   4.193   7.750  1.5955 -0.7771 -0.8636
 8580SOL     H251940   0.631   4.202   7.809  0.8816  0.8442  0.6135
 8581SOL    OH251941   1.515   5.091   7.134  0.0033  0.1703 -0.9238
 8581SOL     H151942   1.602   5.125   7.113  0.2613 -0.2609 -0.5516
 8581SOL     H251943   1.519   5.066   7.226 -0.5933  0.3861 -0.8343
 8582SOL    OH251944   7.941   2.912   0.368 -0.0374  0.1676 -0.4570
 8582SOL     H151945   7.852   2.926   0.399 -0.2174 -0.0685 -0.8621
 8582SOL     H251946   7.945   2.818   0.349 -0.0561  0.3830 -1.5402
 8583SOL    OH251947   2.167   2.606   1.509  0.4566 -0.1577 -0.7284
 8583SOL     H151948   2.096   2.670   1.517 -0.0881 -0.7062 -1.1563
 8583SOL     H251949   2.226   2.644   1.445 -0.6155 -0.7558 -2.0991
 8584SOL    OH251950   2.842   6.330   7.775  0.2238  0.5220 -0.2715
 8584SOL     H151951   2.761   6.292   7.741  1.4746  0.8374 -3.8038
 8584SOL     H251952   2.897   6.255   7.795 -0.3228  0.3428  0.5857
 8585SOL    OH251953   5.737   2.885   1.539  0.1456 -0.3929  0.0745
 8585SOL     H151954   5.813   2.908   1.486 -0.6383  0.9259 -0.4920
 8585SOL     H251955   5.663   2.886   1.478 -0.4708 -0.8084  0.7991
 8586SOL    OH251956   2.244   5.454   2.014  0.3487 -0.6364  0.3364
 8586SOL     H151957   2.300   5.532   2.006 -0.1608  0.0324  2.7777
 8586SOL     H251958   2.300   5.389   2.057  0.3541 -1.1729 -0.4762
 8587SOL    OH251959   7.440   2.507   8.105 -0.0582  0.4897 -0.1415
 8587SOL     H151960   7.438   2.535   8.197 -1.5108 -0.0113 -0.0096
 8587SOL     H251961   7.395   2.578   8.058 -1.0697 -0.1788 -0.1972
 8588SOL    OH251962   6.216   4.227   8.311  0.0743 -0.4625 -1.1734
 8588SOL     H151963   6.144   4.240   8.249 -1.7127  0.2756  0.9480
 8588SOL     H251964   6.295   4.224   8.257 -1.2714  1.4459 -3.3526
 8589SOL    OH251965   5.956   0.268   1.105  0.0135  0.0551  0.1044
 8589SOL     H151966   6.044   0.300   1.083  0.5479 -1.1652  0.4013
 8589SOL     H251967   5.906   0.278   1.024 -0.1427  2.6215  0.4886
 8590SOL    OH251968   5.705   2.590   1.836 -0.2553  0.1353  0.1926
 8590SOL     H151969   5.719   2.530   1.908  1.0145 -0.5634 -0.6118
 8590SOL     H251970   5.678   2.534   1.763 -1.2116  0.7946  0.0239
 8591SOL    OH251971   2.555   6.580   1.847  0.9754  0.0074  0.0378
 8591SOL     H151972   2.557   6.489   1.817  2.4418 -0.1701  0.6112
 8591SOL     H251973   2.494   6.624   1.788  0.1187 -1.3855 -0.1328
 8592SOL    OH251974   7.341   0.904   8.195  0.0140 -0.0898  0.4619
 8592SOL     H151975   7.359   0.994   8.221  0.6695  0.1245 -0.7287
 8592SOL     H251976   7.293   0.867   8.270 -1.8600  1.7603  0.2148
 8593SOL    OH251977   6.377   3.971   2.367  0.0082 -0.1485 -0.2580
 8593SOL     H151978   6.334   3.982   2.283  0.9772  1.8617 -0.5142
 8593SOL     H251979   6.319   4.013   2.430  0.0770 -0.2014 -0.1576
 8594SOL    OH251980   6.473   4.286   2.592 -0.3124  0.3717  0.9473
 8594SOL     H151981   6.545   4.226   2.573 -0.4577  0.1997  0.9398
 8594SOL     H251982   6.516   4.366   2.622 -0.0623  0.7889 -0.5103
 8595SOL    OH251983   6.425   5.667   0.031 -0.3156  0.2335 -0.3409
 8595SOL     H151984   6.499   5.661   0.090 -0.2403 -0.7005 -0.5275
 8595SOL     H251985   6.416   5.580  -0.007 -1.9336  0.1404  0.1927
 8596SOL    OH251986   3.807   6.545   5.931 -0.2484  0.0502 -0.4269
 8596SOL     H151987   3.809   6.636   5.961 -2.1355 -0.1383  0.3394
 8596SOL     H251988   3.718   6.532   5.900  0.2490 -1.3055 -1.3445
 8597SOL    OH251989   7.359   7.292   2.378  0.5371  0.7127 -0.0542
 8597SOL     H151990   7.434   7.247   2.338 -0.1933 -0.3978 -0.1876
 8597SOL     H251991   7.331   7.355   2.311  0.7840  0.5026 -0.3580
 8598SOL    OH251992   2.100   2.140   0.477 -0.3475  0.5080 -0.6393
 8598SOL     H151993   2.017   2.188   0.481  0.9869  2.9238 -1.2431
 8598SOL     H251994   2.074   2.050   0.456 -2.9926  0.6282  1.7820
 8599SOL    OH251995   1.985   4.696   0.201  0.7038 -0.7030 -0.6510
 8599SOL     H151996   1.912   4.735   0.250  1.8961  2.4035 -1.1806
 8599SOL     H251997   1.946   4.668   0.118 -0.0071  0.5070 -0.7371
 8600SOL    OH251998   1.477   0.058   6.469 -0.8165 -0.2721 -0.2111
 8600SOL     H151999   1.393   0.058   6.514 -0.6806 -3.6693  0.2210
 8600SOL     H252000   1.538   0.098   6.531 -1.5587 -0.5601  0.7179
 8601SOL    OH252001   7.840   5.120   0.056 -0.3198  0.6478 -0.4566
 8601SOL     H152002   7.781   5.143  -0.016 -0.9746 -1.9342 -0.7881
 8601SOL     H252003   7.786   5.066   0.114  0.6165  1.5477  1.2652
 8602SOL    OH252004   6.731   1.993   1.426  0.2224  0.5700  0.1182
 8602SOL     H152005   6.662   1.931   1.402 -0.0576  0.4155  1.3061
 8602SOL     H252006   6.713   2.071   1.373 -2.0109  1.2449  1.8101
 8603SOL    OH252007   2.815   6.088   5.586 -0.1811  0.2928 -0.0406
 8603SOL     H152008   2.884   6.100   5.521  0.8463 -1.5213  0.6815
 8603SOL     H252009   2.755   6.024   5.547 -0.6132  0.6742 -0.0094
 8604SOL    OH252010   6.246   6.512   6.470 -0.1126 -0.5077  0.0255
 8604SOL     H152011   6.186   6.481   6.402 -1.1632 -1.5713  1.3954
 8604SOL     H252012   6.281   6.432   6.509 -0.2426  0.0605  1.3427
 8605SOL    OH252013   5.225   2.107   7.296 -0.2720  0.1370 -0.0082
 8605SOL     H152014   5.247   2.101   7.389  2.8410 -1.1258 -0.7639
 8605SOL     H252015   5.239   2.019   7.262  1.7877  1.2860 -2.2793
 8606SOL    OH252016   1.649   5.735   1.368 -0.3155 -0.4885  0.2986
 8606SOL     H152017   1.611   5.795   1.304 -0.5594  0.7045  1.5405
 8606SOL     H252018   1.617   5.649   1.342 -2.4280  0.2779  0.2579
 8607SOL    OH252019   0.881   3.802   1.333 -0.4576 -0.4882 -0.0914
 8607SOL     H152020   0.930   3.736   1.381 -0.1942  0.4244  0.9091
 8607SOL     H252021   0.821   3.752   1.278  0.9776 -1.5871 -0.6869
 8608SOL    OH252022   7.778   2.486   1.919  0.0443  0.2633 -0.1560
 8608SOL     H152023   7.685   2.497   1.898  0.2696  0.2120 -1.2018
 8608SOL     H252024   7.817   2.449   1.840  0.7511 -0.7843  0.6599
 8609SOL    OH252025   1.703   6.712   2.123 -0.4438  0.0100 -0.2931
 8609SOL     H152026   1.784   6.758   2.145 -0.4462  0.5980 -1.4823
 8609SOL     H252027   1.695   6.644   2.190  0.2383  0.9133  0.7291
 8610SOL    OH252028   7.935   1.780   1.367  0.1935  0.8076  0.4570
 8610SOL     H152029   7.911   1.752   1.456 -0.6754  0.3739  0.0884
 8610SOL     H252030   7.861   1.832   1.337 -0.1956 -0.3248 -0.5867
 8611SOL    OH252031   4.772   1.247   1.326  0.2772 -0.2703 -0.6919
 8611SOL     H152032   4.757   1.315   1.260  0.0245  0.3686  0.0179
 8611SOL     H252033   4.720   1.274   1.401  2.3230  0.2203  0.6053
 8612SOL    OH252034   3.473   3.256   7.506  0.0330 -0.2402  0.3970
 8612SOL     H152035   3.546   3.222   7.558 -0.7830 -0.2867  1.5529
 8612SOL     H252036   3.395   3.215   7.545 -0.8367  1.8166  0.9211
 8613SOL    OH252037   3.070   4.054   1.740 -0.4196 -0.0406 -0.0602
 8613SOL     H152038   3.138   4.057   1.808  0.4549 -1.8248 -0.8037
 8613SOL     H252039   3.118   4.034   1.660 -1.9255 -2.5035 -0.4078
 8614SOL    OH252040   6.421   4.763   0.021  0.4706 -0.6854  0.0548
 8614SOL     H152041   6.493   4.784   0.081  0.6720  0.1796 -0.4823
 8614SOL     H252042   6.458   4.699  -0.040  1.8791  2.3381 -2.3862
 8615SOL    OH252043   6.632   3.854   2.139  0.2134 -0.3124  0.5290
 8615SOL     H152044   6.581   3.935   2.134 -0.5428 -0.8783 -1.1753
 8615SOL     H252045   6.663   3.840   2.050  1.3932 -1.2434  1.0751
 8616SOL    OH252046   4.857   6.430   7.865 -0.3857 -0.2988  0.2144
 8616SOL     H152047   4.769   6.429   7.904 -0.2298  1.6275  0.6371
 8616SOL     H252048   4.840   6.434   7.771 -0.7604  0.0678  0.2924
 8617SOL    OH252049   2.089   3.515   7.324 -0.0185 -0.1846  0.2520
 8617SOL     H152050   2.115   3.530   7.233 -0.1184  1.2372  0.4466
 8617SOL     H252051   1.999   3.484   7.318 -0.4459  1.0949 -0.0755
 8618SOL    OH252052   2.932   3.285   0.483  0.5246 -0.1002 -0.3469
 8618SOL     H152053   2.995   3.232   0.434  1.0451  0.1670  0.0344
 8618SOL     H252054   2.960   3.278   0.574  0.3946  0.5555 -0.2537
 8619SOL    OH252055   0.754   5.976   0.350 -0.1054 -0.1369 -0.2237
 8619SOL     H152056   0.759   5.896   0.402 -1.9106 -0.3773 -0.3966
 8619SOL     H252057   0.845   5.996   0.327  0.3659 -2.0476 -0.0539
 8620SOL    OH252058   1.449   3.871   7.749 -0.0946 -0.3690  0.3245
 8620SOL     H152059   1.472   3.962   7.729 -0.1767 -0.3396  0.3649
 8620SOL     H252060   1.519   3.842   7.807 -0.7807  0.0855  1.3933
 8621SOL    OH252061   5.366   0.516   7.946  0.1041 -0.5144  0.3993
 8621SOL     H152062   5.275   0.500   7.922 -0.6178  1.4828  1.7326
 8621SOL     H252063   5.398   0.432   7.978 -1.4216 -1.1072  0.3824
 8622SOL    OH252064   0.199   1.703   2.415  0.1585 -0.3903 -0.4389
 8622SOL     H152065   0.245   1.780   2.449  0.4958 -0.9557  0.4032
 8622SOL     H252066   0.126   1.739   2.365 -0.2348  0.4680  0.7332
 8623SOL    OH252067   1.367   7.213   0.897  0.1000  0.8267  0.6389
 8623SOL     H152068   1.410   7.297   0.877  0.8950  0.8701  2.3923
 8623SOL     H252069   1.353   7.216   0.992 -0.4393 -0.7688  0.6146
 8624SOL    OH252070   5.954   7.735   0.272  0.1412  0.4937  0.0995
 8624SOL     H152071   6.029   7.748   0.331  1.0281  0.8907 -1.0909
 8624SOL     H252072   5.982   7.663   0.215  0.2796  1.6930 -1.3817
 8625SOL    OH252073   5.911   1.366   7.603  0.0575 -0.9272  0.4545
 8625SOL     H152074   5.838   1.333   7.550  0.2456 -1.4564  0.5237
 8625SOL     H252075   5.975   1.296   7.601  0.0902 -0.9179  1.3439
 8626SOL    OH252076   4.505   3.576   6.310  0.8108  0.2307  0.0222
 8626SOL     H152077   4.548   3.616   6.386  0.2487  1.6611 -0.4007
 8626SOL     H252078   4.465   3.649   6.264  2.1669 -0.4530 -2.3198
 8627SOL    OH252079   5.657   3.551   8.195  0.3301 -0.8147 -0.1977
 8627SOL     H152080   5.705   3.593   8.266  0.2235 -1.0798  0.0316
 8627SOL     H252081   5.566   3.576   8.209  0.3205 -0.7957 -0.2921
 8628SOL    OH252082   2.949   6.022   0.094  0.2561  0.2368 -0.3061
 8628SOL     H152083   2.913   5.933   0.090 -0.9793  0.6683  0.6254
 8628SOL     H252084   3.016   6.018   0.162  0.2542 -0.0164 -0.3209
 8629SOL    OH252085   7.845   1.176   0.302  0.1657 -0.0077  0.0688
 8629SOL     H152086   7.797   1.153   0.223  0.4363 -1.7670  0.3947
 8629SOL     H252087   7.777   1.182   0.370  0.1649 -0.4218  0.1038
 8630SOL    OH252088   5.819   6.336   6.922 -0.4803  0.1460 -0.0194
 8630SOL     H152089   5.724   6.328   6.927 -1.0828  3.8607 -2.9792
 8630SOL     H252090   5.845   6.371   7.007 -1.6691 -1.2534  0.9450
 8631SOL    OH252091   6.577   0.349   0.912 -0.0803  0.1831 -0.5884
 8631SOL     H152092   6.524   0.269   0.903 -1.7458  1.1699  0.2005
 8631SOL     H252093   6.544   0.390   0.993  1.8898  0.8312 -0.0966
 8632SOL    OH252094   6.095   6.282   6.275 -0.2748  0.8264  0.3685
 8632SOL     H152095   6.034   6.224   6.230 -2.1242  0.1673  3.5521
 8632SOL     H252096   6.179   6.237   6.270 -0.5394  0.4912 -1.7915
 8633SOL    OH252097   5.912   5.255   2.516  0.2222 -0.5092 -0.1725
 8633SOL     H152098   5.977   5.187   2.536  0.0329 -2.1449 -4.5557
 8633SOL     H252099   5.952   5.336   2.547  1.4609 -2.3091  3.1054
 8634SOL    OH252100   5.476   0.104   0.450 -0.4496  0.3482 -0.0942
 8634SOL     H152101   5.404   0.149   0.405 -0.9077  0.6122  0.8801
 8634SOL     H252102   5.432   0.049   0.515  0.2172  0.0990  0.1457
 8635SOL    OH252103   3.451   6.296   1.889  0.1623 -0.2310  0.1554
 8635SOL     H152104   3.377   6.347   1.922  0.8326  0.2937  0.8610
 8635SOL     H252105   3.411   6.215   1.857 -0.7596  0.1894  0.2121
 8636SOL    OH252106   1.382   5.956   7.620  0.1656 -0.2802  0.4862
 8636SOL     H152107   1.375   5.959   7.525  0.1486 -0.7511  0.4681
 8636SOL     H252108   1.438   5.881   7.638  0.9470  0.3820  0.8216
 8637SOL    OH252109   0.919   1.256   6.757  0.5590 -1.0254 -0.2377
 8637SOL     H152110   0.835   1.255   6.802 -1.0009  0.7908 -2.9369
 8637SOL     H252111   0.949   1.347   6.765  0.7861 -0.9442 -1.7953
 8638SOL    OH252112   5.866   4.181   7.102  0.4624 -0.0083 -0.6927
 8638SOL     H152113   5.917   4.123   7.158  3.4540  1.0004 -2.2832
 8638SOL     H252114   5.863   4.264   7.150 -0.5445 -0.3277 -0.1771
 8639SOL    OH252115   4.837   2.362   1.739 -0.4337  0.4260  0.4406
 8639SOL     H152116   4.926   2.396   1.746 -0.8619  1.8243 -0.6215
 8639SOL     H252117   4.784   2.426   1.787 -0.8409 -0.5408  1.2951
 8640SOL    OH252118   5.504   3.611   1.666  0.3425  0.5465 -0.1897
 8640SOL     H152119   5.585   3.644   1.627  0.0403  0.8596 -0.5527
 8640SOL     H252120   5.533   3.559   1.741  1.0174 -1.4395 -1.7748
 8641SOL    OH252121   6.847   4.747   7.664 -0.3602 -0.1865 -0.3837
 8641SOL     H152122   6.763   4.792   7.659 -0.6814 -0.3552  2.7432
 8641SOL     H252123   6.912   4.814   7.643 -1.1412  0.5303 -0.5116
 8642SOL    OH252124   1.065   4.681   6.850 -0.1956  0.1661  0.1169
 8642SOL     H152125   0.990   4.621   6.860 -0.0614 -0.3365 -1.7514
 8642SOL     H252126   1.138   4.634   6.889 -0.6629  0.2920  1.1660
 8643SOL    OH252127   1.691   4.763   6.037  0.7874 -0.2306 -1.0471
 8643SOL     H152128   1.697   4.704   6.113  0.6882  0.6660 -0.3269
 8643SOL     H252129   1.598   4.763   6.014  0.7784 -0.3141 -1.0118
 8644SOL    OH252130   7.010   6.575   0.935 -0.2785  0.6662  0.3232
 8644SOL     H152131   6.976   6.664   0.937  0.2625  0.8787  0.0495
 8644SOL     H252132   7.102   6.583   0.961  0.4092  0.4891 -1.9436
 8645SOL    OH252133   1.536   1.142   0.554  0.5447  0.4816  0.1046
 8645SOL     H152134   1.556   1.108   0.467 -0.6391 -0.3751  0.1684
 8645SOL     H252135   1.482   1.075   0.595  0.2487  1.3365  1.1351
 8646SOL    OH252136   2.340   0.526   6.686 -0.1277  0.0773 -0.5525
 8646SOL     H152137   2.397   0.553   6.615 -0.5112  1.6942 -0.2721
 8646SOL     H252138   2.284   0.459   6.648  1.1791 -0.7032 -1.1338
 8647SOL    OH252139   3.875   3.776   0.839 -0.3362  0.2592 -0.4914
 8647SOL     H152140   3.950   3.766   0.782  1.6496  0.6178  1.9732
 8647SOL     H252141   3.835   3.690   0.843  0.8367 -0.2960 -0.6269
 8648SOL    OH252142   1.706   7.539   6.444  0.5690  0.2265  0.0230
 8648SOL     H152143   1.738   7.629   6.452  1.0127  0.0100  0.6656
 8648SOL     H252144   1.651   7.541   6.365  0.9447  0.9508 -0.2290
 8649SOL    OH252145   1.803   7.721   1.372 -0.0870  0.2736 -0.1661
 8649SOL     H152146   1.712   7.699   1.389  0.1015  0.5289  1.1785
 8649SOL     H252147   1.814   7.809   1.410  0.8728 -0.0052  0.2010
 8650SOL    OH252148   3.735   7.628   0.919  0.3990 -0.1147 -0.0286
 8650SOL     H152149   3.752   7.650   0.827 -0.0610  0.3248 -0.0136
 8650SOL     H252150   3.821   7.605   0.954  1.1788  2.9714  0.2919
 8651SOL    OH252151   0.158   5.669   6.434  0.1374  0.0306 -0.2530
 8651SOL     H152152   0.156   5.765   6.432 -1.8110 -0.0056 -2.6672
 8651SOL     H252153   0.224   5.645   6.369  2.1505 -0.3006  1.8287
 8652SOL    OH252154   2.886   0.571   2.155 -0.0621  0.0005 -0.0925
 8652SOL     H152155   2.904   0.491   2.105  0.1160  1.7267 -2.9386
 8652SOL     H252156   2.956   0.631   2.130  0.4892  0.6892  2.9440
 8653SOL    OH252157   6.822   7.394   1.964  0.3898  0.6683 -0.4532
 8653SOL     H152158   6.752   7.404   1.899  1.7097  2.2292 -1.6961
 8653SOL     H252159   6.777   7.391   2.048 -1.2647  0.0213 -1.3374
 8654SOL    OH252160   2.094   5.145   2.582 -0.0127  0.0965  0.2056
 8654SOL     H152161   2.056   5.082   2.642  0.7775  0.4050  1.0411
 8654SOL     H252162   2.116   5.094   2.504 -1.6116 -0.1834 -0.0677
 8655SOL    OH252163   7.435   5.966   1.775 -0.7869 -0.1495  0.0565
 8655SOL     H152164   7.407   5.942   1.687  0.7643 -2.0753  0.0552
 8655SOL     H252165   7.419   6.060   1.781 -0.6633  0.0487 -2.3702
 8656SOL    OH252166   4.204   2.330   1.081  0.2659  0.6391  0.0061
 8656SOL     H152167   4.119   2.346   1.039  0.0143 -1.5623 -0.4094
 8656SOL     H252168   4.182   2.292   1.166  0.8159 -0.9977 -0.5607
 8657SOL    OH252169   3.811   1.466   1.993 -0.2835  0.1689  0.0121
 8657SOL     H152170   3.800   1.524   1.918  1.9092 -2.0585 -2.1199
 8657SOL     H252171   3.887   1.501   2.040  0.8852 -0.7655 -1.1363
 8658SOL    OH252172   1.304   5.899   6.555 -0.2106  0.2448  0.3096
 8658SOL     H152173   1.339   5.864   6.638  0.1443  2.0816  0.9621
 8658SOL     H252174   1.273   5.821   6.508  1.7982 -1.1063  1.1141
 8659SOL    OH252175   7.217   1.168   2.025  0.0968  0.0049  0.5628
 8659SOL     H152176   7.190   1.192   2.114  1.3122  0.0342  0.9258
 8659SOL     H252177   7.264   1.085   2.036  0.2921  0.0365 -0.0525
 8660SOL    OH252178   3.645   2.597   7.636 -0.1712  0.1744 -0.1638
 8660SOL     H152179   3.737   2.579   7.656 -0.6708 -1.8894  0.3505
 8660SOL     H252180   3.624   2.675   7.687  0.9476 -0.0843  0.7171
 8661SOL    OH252181   0.552   4.717   8.145  0.3086  0.3638 -0.4766
 8661SOL     H152182   0.491   4.729   8.218  0.1055  0.9303 -0.7361
 8661SOL     H252183   0.509   4.760   8.071 -0.2315 -1.5868 -1.3363
 8662SOL    OH252184   0.837   3.844   7.396 -0.1107 -1.0463 -0.4088
 8662SOL     H152185   0.881   3.920   7.357  1.7990 -1.5110  0.7304
 8662SOL     H252186   0.744   3.861   7.385  0.3154  1.0422 -0.9783
 8663SOL    OH252187   5.234   2.289   6.498  0.0459  0.2921  0.2858
 8663SOL     H152188   5.214   2.297   6.405  0.1003  2.1627  0.4283
 8663SOL     H252189   5.328   2.270   6.501  0.0535  0.2857 -0.0392
 8664SOL    OH252190   7.204   7.900   7.928  0.1625  0.2163 -0.2134
 8664SOL     H152191   7.186   7.860   8.013  0.5448  1.2383  0.3636
 8664SOL     H252192   7.156   7.983   7.930  0.3780  0.3616 -0.9024
 8665SOL    OH252193   3.201   7.399   7.354  0.2297 -0.5321  0.2767
 8665SOL     H152194   3.132   7.341   7.322 -0.6896  0.5066  0.3292
 8665SOL     H252195   3.269   7.340   7.386 -1.8420 -1.6007  2.8513
 8666SOL    OH252196   6.061   3.226   0.412  0.6751 -0.1827 -0.1364
 8666SOL     H152197   5.985   3.235   0.469 -0.6141 -0.5533 -1.7656
 8666SOL     H252198   6.058   3.136   0.381  1.0666  0.1580 -1.1885
 8667SOL    OH252199   2.319   2.638   6.355 -0.2173  0.1745  0.3491
 8667SOL     H152200   2.280   2.680   6.278  1.5380 -0.7231 -1.0955
 8667SOL     H252201   2.414   2.653   6.344  0.2926 -2.5506  0.7145
 8668SOL    OH252202   1.423   2.994   7.291  0.1096 -0.5575  0.0945
 8668SOL     H152203   1.498   2.935   7.282  2.6157  2.4810  0.2348
 8668SOL     H252204   1.394   3.010   7.201  0.8930 -0.1986 -0.0999
 8669SOL    OH252205   1.730   3.532   8.000 -0.5349 -0.0409 -0.4674
 8669SOL     H152206   1.646   3.497   8.028 -0.7768  0.3792 -0.6661
 8669SOL     H252207   1.723   3.538   7.905 -0.1094 -0.4397 -0.5293
 8670SOL    OH252208   4.286   3.314   6.849  0.2104  0.1282  0.1013
 8670SOL     H152209   4.346   3.327   6.922 -0.2320 -2.1612  0.9109
 8670SOL     H252210   4.199   3.315   6.888 -0.0589 -0.5342 -0.4776
 8671SOL    OH252211   2.427   6.764   0.749  0.2560  0.1636  0.6246
 8671SOL     H152212   2.518   6.782   0.770  0.4235  0.8084 -0.6202
 8671SOL     H252213   2.415   6.798   0.660 -1.8348  2.3189  1.6460
 8672SOL    OH252214   6.090   2.805   1.081 -1.2097 -0.0236 -0.1540
 8672SOL     H152215   6.016   2.771   1.131 -1.4031 -0.2978 -0.6184
 8672SOL     H252216   6.147   2.729   1.067 -0.9400  0.1444  0.0296
 8673SOL    OH252217   6.647   1.934   0.983  0.0477 -0.3221 -0.2114
 8673SOL     H152218   6.597   1.858   1.013 -0.0927 -0.5184 -0.9141
 8673SOL     H252219   6.582   1.991   0.943  0.3369 -0.4399 -0.8580
 8674SOL    OH252220   4.205   7.880   1.267 -0.3437 -0.6280 -0.6678
 8674SOL     H152221   4.250   7.796   1.276 -1.4975 -1.1556  0.4012
 8674SOL     H252222   4.121   7.858   1.228 -1.4950 -0.2552  1.5486
 8675SOL    OH252223   2.590   3.094   6.764  0.1918 -0.2907 -0.5192
 8675SOL     H152224   2.515   3.042   6.793  0.0845  0.6688  1.0202
 8675SOL     H252225   2.567   3.123   6.676 -1.6585  0.7568  0.2728
 8676SOL    OH252226   5.424   1.749   1.018 -0.3109  0.2130  0.1512
 8676SOL     H152227   5.463   1.763   1.104  1.7676 -3.3240 -0.0928
 8676SOL     H252228   5.495   1.769   0.956 -1.3219  1.2643 -0.6902
 8677SOL    OH252229   6.774   6.765   7.816 -0.1992 -0.1999 -0.1905
 8677SOL     H152230   6.782   6.730   7.727  2.0036 -0.7086  0.1756
 8677SOL     H252231   6.770   6.860   7.804 -0.3674 -0.2889 -0.8670
 8678SOL    OH252232   4.659   3.369   5.862 -0.0458 -0.5973  0.7844
 8678SOL     H152233   4.636   3.456   5.830 -0.4759 -0.6013  1.0866
 8678SOL     H252234   4.624   3.309   5.795  0.7990 -0.5098  0.2603
 8679SOL    OH252235   2.548   4.775   7.920 -0.4266 -0.2507 -0.4186
 8679SOL     H152236   2.534   4.865   7.951 -1.2713 -0.8497  0.9762
 8679SOL     H252237   2.473   4.757   7.864 -1.5016 -0.8920  1.1888
 8680SOL    OH252238   5.987   0.143   6.594 -0.0064  0.4374 -0.1855
 8680SOL     H152239   6.071   0.184   6.617 -0.6137  1.5053  0.2120
 8680SOL     H252240   5.976   0.161   6.501 -0.2598  1.1938 -0.0182
 8681SOL    OH252241   5.417   7.640   0.927  0.3173  0.4822  0.1658
 8681SOL     H152242   5.462   7.644   1.011 -0.7808  1.1879  0.7298
 8681SOL     H252243   5.470   7.580   0.874  0.8442 -0.2030  1.4557
 8682SOL    OH252244   0.801   3.439   0.187  0.6748 -0.0950  0.8748
 8682SOL     H152245   0.717   3.455   0.231  1.2388  1.4502  1.3987
 8682SOL     H252246   0.866   3.473   0.247  1.6122 -0.1452 -0.1106
 8683SOL    OH252247   1.934   1.218   8.052 -0.1300 -0.6579 -0.2898
 8683SOL     H152248   1.849   1.260   8.040  0.4722  0.5635 -0.3581
 8683SOL     H252249   1.998   1.283   8.022  0.9693 -0.5211  2.1966
 8684SOL    OH252250   1.090   6.615   0.826 -0.2078 -0.1926  0.0910
 8684SOL     H152251   1.157   6.564   0.781  1.0025  1.9033 -0.5393
 8684SOL     H252252   1.095   6.702   0.786 -1.3365  0.7994  2.0237
 8685SOL    OH252253   5.815   1.174   7.190 -0.1116  0.3138 -0.0214
 8685SOL     H152254   5.863   1.129   7.120  0.3587  0.6434  0.0827
 8685SOL     H252255   5.790   1.104   7.250  3.3766  0.4661  1.7834
 8686SOL    OH252256   7.142   7.623   6.132  0.1465 -0.2797  0.6182
 8686SOL     H152257   7.094   7.649   6.054 -1.2772 -2.1930  0.8134
 8686SOL     H252258   7.234   7.622   6.105 -0.2185  0.2568 -0.6697
 8687SOL    OH252259   1.914   4.282   1.144  0.1753 -0.3223 -0.9362
 8687SOL     H152260   1.959   4.204   1.175  0.4984 -0.5337 -1.9210
 8687SOL     H252261   1.982   4.350   1.141 -0.1277  0.0346  0.0242
 8688SOL    OH252262   5.128   6.151   1.043  0.2638  0.3769 -0.3814
 8688SOL     H152263   5.036   6.129   1.055  0.3490 -0.0255 -0.4561
 8688SOL     H252264   5.127   6.239   1.005 -0.0274  1.3642  1.8463
 8689SOL    OH252265   1.980   2.480   1.727 -0.7627 -0.0253  0.6731
 8689SOL     H152266   1.995   2.547   1.793 -2.4590 -0.3206  1.3797
 8689SOL     H252267   1.942   2.528   1.653 -2.6439 -0.2757  1.4429
 8690SOL    OH252268   6.996   4.557   1.948 -0.5251 -0.4571  0.5695
 8690SOL     H152269   7.012   4.585   2.038 -0.0215 -0.8672  0.6114
 8690SOL     H252270   6.935   4.484   1.956  0.0210 -0.9144  0.6297
 8691SOL    OH252271   7.012   4.510   6.915 -0.1272 -0.0307 -0.3410
 8691SOL     H152272   7.070   4.448   6.871 -0.5623 -0.0876 -0.8494
 8691SOL     H252273   7.070   4.562   6.971  0.2797 -0.6814 -0.1565
 8692SOL    OH252274   3.617   0.488   7.693  0.1649  0.1737 -0.3025
 8692SOL     H152275   3.665   0.551   7.746  0.0277 -1.1889  1.4893
 8692SOL     H252276   3.671   0.477   7.614  0.3240  2.2855 -0.5093
 8693SOL    OH252277   5.481   1.579   6.696  0.4548  0.7318  0.2693
 8693SOL     H152278   5.565   1.625   6.710  0.5347  1.4312 -2.2691
 8693SOL     H252279   5.466   1.586   6.602 -1.7969 -0.6017  0.5135
 8694SOL    OH252280   2.821   2.214   6.611  0.3519 -0.3599  0.0530
 8694SOL     H152281   2.896   2.255   6.568  0.0396  1.0226  0.7918
 8694SOL     H252282   2.815   2.127   6.572  1.0286  0.3041 -1.5487
 8695SOL    OH252283   6.686   3.568   6.903  0.1723 -0.2137  0.2222
 8695SOL     H152284   6.591   3.579   6.892  0.4006  1.0689 -0.5473
 8695SOL     H252285   6.722   3.656   6.892  1.3792 -0.5553  1.3787
 8696SOL    OH252286   1.056   4.796   6.067  0.1686  0.6509 -0.3146
 8696SOL     H152287   1.101   4.792   5.983 -1.1556 -0.0133 -1.0024
 8696SOL     H252288   1.021   4.884   6.072 -0.9425  0.2506 -1.0834
 8697SOL    OH252289   7.479   7.227   0.667  0.1137  0.1125  0.2472
 8697SOL     H152290   7.466   7.322   0.669  0.7502  0.2175 -0.4174
 8697SOL     H252291   7.443   7.200   0.583  2.8402  0.2189 -0.9978
 8698SOL    OH252292   5.048   5.893   0.649  0.1304  0.5153 -0.1049
 8698SOL     H152293   4.995   5.819   0.680  0.1505  0.5476  0.0031
 8698SOL     H252294   5.073   5.868   0.560 -0.5677  0.7565 -0.3808
 8699SOL    OH252295   1.391   2.640   6.070  0.3868  0.3207 -0.1720
 8699SOL     H152296   1.455   2.623   6.140  0.8482 -0.4533 -0.7816
 8699SOL     H252297   1.368   2.554   6.036  1.8023  0.7886 -2.4306
 8700SOL    OH252298   0.257   3.784   1.541  0.0052  0.1798 -0.3990
 8700SOL     H152299   0.246   3.843   1.615 -0.4123 -1.5584  0.9598
 8700SOL     H252300   0.305   3.835   1.477  0.1634  1.8015  0.9763
 8701SOL    OH252301   7.413   0.259   0.102 -0.4523 -0.9726  0.5939
 8701SOL     H152302   7.357   0.186   0.077 -0.3884 -1.4218  1.7086
 8701SOL     H252303   7.485   0.218   0.151 -0.8495 -0.1103  1.9366
 8702SOL    OH252304   0.122   2.207   0.297  0.2890  0.1663  0.3396
 8702SOL     H152305   0.169   2.256   0.365  0.5243  0.4195 -0.0016
 8702SOL     H252306   0.038   2.251   0.290  0.4923  0.5199  0.0477
 8703SOL    OH252307   5.217   0.745   0.215  0.0105  0.1661 -0.3435
 8703SOL     H152308   5.241   0.753   0.123 -0.2329 -0.7679 -0.4950
 8703SOL     H252309   5.144   0.806   0.226  1.3557  1.7718 -0.2771
 8704SOL    OH252310   3.580   5.474   1.122 -0.1674 -0.5880 -0.0720
 8704SOL     H152311   3.522   5.455   1.049  0.6537  1.9617 -1.4664
 8704SOL     H252312   3.665   5.439   1.095 -0.4640 -2.0358  0.8448
 8705SOL    OH252313   5.717   3.148   2.031  0.2633  0.2196  0.2798
 8705SOL     H152314   5.647   3.203   1.995  1.2799  2.7739  2.0281
 8705SOL     H252315   5.672   3.086   2.087 -0.8185  0.0214 -0.7826
 8706SOL    OH252316   0.093   1.592   7.207  1.3751  0.6706 -0.2071
 8706SOL     H152317   0.001   1.618   7.216  0.3037 -2.2593 -1.7308
 8706SOL     H252318   0.137   1.669   7.172 -0.4070  2.2511  0.9238
 8707SOL    OH252319   3.811   6.372   0.565  0.0566  0.2941 -0.5574
 8707SOL     H152320   3.792   6.457   0.605  0.8465  0.9590 -1.5554
 8707SOL     H252321   3.733   6.353   0.513 -0.6686 -0.2291  0.6979
 8708SOL    OH252322   4.918   2.559   1.962  0.3945 -0.0468 -0.6595
 8708SOL     H152323   4.896   2.569   2.055  0.1740  1.0508 -0.8263
 8708SOL     H252324   5.013   2.554   1.960  0.4427  0.7593 -0.4517
 8709SOL    OH252325   6.770   7.646   7.221 -0.0207 -0.0726  0.0435
 8709SOL     H152326   6.844   7.668   7.164 -2.3444 -0.9769 -3.4417
 8709SOL     H252327   6.750   7.728   7.266  3.0625  0.1854  1.1128
 8710SOL    OH252328   0.169   2.196   2.311 -0.1650  0.1957  0.2467
 8710SOL     H152329   0.074   2.199   2.321  0.0911 -0.0993  3.0493
 8710SOL     H252330   0.190   2.274   2.258 -1.8413  0.8980  0.5904
 8711SOL    OH252331   6.895   1.069   1.378 -0.0233  0.0454 -0.1533
 8711SOL     H152332   6.963   1.073   1.311  1.4371 -1.1208  1.2508
 8711SOL     H252333   6.938   1.034   1.456 -2.8223 -3.3026  0.0132
 8712SOL    OH252334   7.223   1.149   5.714 -0.2801  0.1080  0.1940
 8712SOL     H152335   7.167   1.091   5.662  2.0425 -1.6121 -0.4915
 8712SOL     H252336   7.263   1.208   5.650 -0.9293  1.0450  0.6286
 8713SOL    OH252337   2.537   4.032   7.062 -0.1708 -0.8883  0.4572
 8713SOL     H152338   2.548   3.947   7.105 -0.0707 -0.7831  0.6391
 8713SOL     H252339   2.620   4.077   7.076  0.2131 -1.2266 -0.6817
 8714SOL    OH252340   3.494   3.914   0.558 -0.7088  0.0798 -0.4570
 8714SOL     H152341   3.399   3.925   0.560 -0.9033 -1.5353 -0.0507
 8714SOL     H252342   3.517   3.894   0.649  0.1653  1.4277 -0.3568
 8715SOL    OH252343   0.694   7.055   6.181 -0.7144  0.4134  0.3134
 8715SOL     H152344   0.757   7.123   6.207  0.8179 -0.7002 -0.4242
 8715SOL     H252345   0.628   7.056   6.250  2.1302 -1.0157  3.1649
 8716SOL    OH252346   0.204   3.948   1.981 -0.0561 -0.2949 -0.1051
 8716SOL     H152347   0.150   4.026   1.969  0.1849 -0.3605 -1.7531
 8716SOL     H252348   0.247   3.935   1.896  1.8264 -0.7970  0.8902
 8717SOL    OH252349   0.507   7.068   1.136  0.1599 -0.1588 -0.0192
 8717SOL     H152350   0.503   6.973   1.124 -1.0624 -0.0220 -0.7555
 8717SOL     H252351   0.502   7.104   1.047 -2.4313  0.6648  0.4131
 8718SOL    OH252352   5.562   5.606   6.837  0.7737  0.6096  0.1110
 8718SOL     H152353   5.476   5.601   6.880  0.8133 -0.9036  0.0357
 8718SOL     H252354   5.564   5.694   6.799 -1.5181  0.0500 -1.4664
 8719SOL    OH252355   4.110   6.730   1.096  0.1730  0.7945  0.0390
 8719SOL     H152356   4.046   6.662   1.117  0.2124  0.9619  0.7139
 8719SOL     H252357   4.059   6.802   1.061  0.0042  0.8776  0.4548
 8720SOL    OH252358   2.769   6.646   7.560 -0.1915  0.1913 -0.8161
 8720SOL     H152359   2.745   6.570   7.507 -1.4760 -0.7036  1.0078
 8720SOL     H252360   2.850   6.619   7.604 -1.1938 -0.5473  0.6227
 8721SOL    OH252361   4.646   3.378   1.910 -0.2573  0.0865  0.4772
 8721SOL     H152362   4.588   3.453   1.912  1.6845  1.6156  1.9709
 8721SOL     H252363   4.657   3.353   2.002  0.3278 -1.0291  0.1169
 8722SOL    OH252364   6.526   0.418   8.244  0.4182  0.2481 -0.3399
 8722SOL     H152365   6.460   0.456   8.301 -0.3896  1.0398 -1.7652
 8722SOL     H252366   6.567   0.493   8.200  0.3688 -0.3742 -1.4875
 8723SOL    OH252367   4.164   4.524   7.547  0.7079 -0.1369  0.4292
 8723SOL     H152368   4.155   4.429   7.551 -1.1649  0.0417  0.6908
 8723SOL     H252369   4.076   4.557   7.531  1.0423  1.6680  2.0581
 8724SOL    OH252370   6.435   0.395   7.864 -0.0702  0.6856 -0.6910
 8724SOL     H152371   6.501   0.373   7.799  1.3198  3.5016 -0.2903
 8724SOL     H252372   6.435   0.321   7.925  1.8531  0.1331 -1.3453
 8725SOL    OH252373   0.478   1.136   1.806 -0.1471  0.1002  0.9127
 8725SOL     H152374   0.478   1.121   1.901  1.2047  1.1363  1.0939
 8725SOL     H252375   0.512   1.225   1.796 -0.7936  0.2000 -0.5266
 8726SOL    OH252376   6.852   0.312   2.009 -0.2483 -0.1853  0.1161
 8726SOL     H152377   6.947   0.321   2.014 -0.4222  1.2536  1.1959
 8726SOL     H252378   6.832   0.320   1.916  0.5583  0.9082  0.0246
 8727SOL    OH252379   4.654   4.752   0.462 -0.5770  0.3441  0.0507
 8727SOL     H152380   4.637   4.661   0.436 -1.5911  0.6378 -0.3283
 8727SOL     H252381   4.736   4.773   0.419  0.5231 -0.9202  1.4623
 8728SOL    OH252382   0.638   5.994   1.270  0.2837 -0.4652  0.4839
 8728SOL     H152383   0.578   5.957   1.205  0.0025  0.5268  0.1563
 8728SOL     H252384   0.711   5.933   1.274  0.5533 -0.2857 -1.1504
 8729SOL    OH252385   3.360   2.134  -0.017  0.4323  0.3760 -0.5374
 8729SOL     H152386   3.381   2.136   0.077  1.7984 -0.1177 -0.8088
 8729SOL     H252387   3.373   2.043  -0.042  1.0923  0.6989 -1.4108
 8730SOL    OH252388   7.551   5.604   0.030 -0.0218  0.4335 -0.5745
 8730SOL     H152389   7.607   5.603  -0.047 -0.4408 -1.5226 -0.8770
 8730SOL     H252390   7.605   5.566   0.099 -0.0278  1.1563 -0.1617
 8731SOL    OH252391   4.442   3.652   0.360  0.3121  0.0076  0.2418
 8731SOL     H152392   4.485   3.669   0.276  0.9508  1.6409  0.8888
 8731SOL     H252393   4.348   3.659   0.342  0.4586  0.5503 -0.2799
 8732SOL    OH252394   3.358   4.636   0.823 -0.4535  0.7041  0.0501
 8732SOL     H152395   3.275   4.592   0.842  0.7257 -1.5527  0.1591
 8732SOL     H252396   3.402   4.642   0.908  0.9729 -1.2928 -0.5100
 8733SOL    OH252397   2.331   3.357   2.159 -0.3342 -0.4861 -0.2624
 8733SOL     H152398   2.287   3.374   2.076 -0.2257 -0.4006 -0.3025
 8733SOL     H252399   2.421   3.388   2.146 -0.6769  0.7773  0.3428
 8734SOL    OH252400   6.754   1.355   0.713 -0.1574  0.0209 -0.4553
 8734SOL     H152401   6.801   1.331   0.793 -2.0506  1.0344  1.0066
 8734SOL     H252402   6.714   1.274   0.683 -1.6516  0.1423  1.1458
 8735SOL    OH252403   1.253   0.462   7.776 -0.2947  0.4234 -0.5559
 8735SOL     H152404   1.245   0.464   7.872  0.3004 -0.1664 -0.4850
 8735SOL     H252405   1.221   0.547   7.747  0.0479  0.8239  0.2180
 8736SOL    OH252406   3.871   2.851   0.858 -0.3691 -0.3602 -0.0719
 8736SOL     H152407   3.873   2.815   0.770 -0.4095  1.2622 -0.7682
 8736SOL     H252408   3.952   2.902   0.866 -2.0863  2.5918 -0.5837
 8737SOL    OH252409   3.808   0.444   7.466  0.2915 -0.3343  0.0359
 8737SOL     H152410   3.814   0.478   7.376 -0.6075 -2.2450 -0.7675
 8737SOL     H252411   3.881   0.485   7.512  1.1836  0.1300 -1.7650
 8738SOL    OH252412   3.410   2.389   1.527  0.3200 -0.1162 -1.0462
 8738SOL     H152413   3.332   2.444   1.527 -0.6731 -1.4599 -1.9581
 8738SOL     H252414   3.376   2.300   1.516  1.9255 -0.8260 -0.4224
 8739SOL    OH252415   1.515   6.985   8.135  0.1902  0.1036 -0.3203
 8739SOL     H152416   1.475   6.988   8.048  0.8221 -1.4749 -0.6704
 8739SOL     H252417   1.552   6.897   8.142  1.2829  0.6503  1.0440
 8740SOL    OH252418   5.698   7.277   6.416 -0.3439 -0.0310 -1.0209
 8740SOL     H152419   5.684   7.363   6.375 -1.4331  0.5055  0.4275
 8740SOL     H252420   5.662   7.215   6.353  0.5950  0.5404 -2.1580
 8741SOL    OH252421   4.018   5.350   0.658  0.0805 -0.0249  0.2937
 8741SOL     H152422   4.081   5.354   0.586  0.2371 -2.4589  0.2546
 8741SOL     H252423   3.940   5.309   0.620  0.2739 -1.6244  1.5747
 8742SOL    OH252424   2.842   7.336   7.233  0.0512 -0.1531 -0.3053
 8742SOL     H152425   2.888   7.408   7.190  1.9616 -1.7829 -1.0644
 8742SOL     H252426   2.764   7.376   7.270  1.3606  2.4195 -0.2286
 8743SOL    OH252427   5.433   2.173   1.589  0.0932 -0.8442 -0.1586
 8743SOL     H152428   5.399   2.199   1.504 -0.3734 -0.6958  0.0738
 8743SOL     H252429   5.510   2.119   1.569  1.0559  0.6878 -0.6342
 8744SOL    OH252430   1.726   5.252   7.091 -0.4042  0.2821 -0.1507
 8744SOL     H152431   1.692   5.298   7.015  1.6819 -1.3151 -2.1263
 8744SOL     H252432   1.771   5.320   7.142 -3.3562  1.7083  0.6785
 8745SOL    OH252433   0.205   2.171   0.967 -0.1945  0.0425  0.0924
 8745SOL     H152434   0.243   2.155   1.053  0.5136 -0.8581 -0.3808
 8745SOL     H252435   0.131   2.230   0.984 -0.1576 -0.2512  1.3284
 8746SOL    OH252436   7.077   1.127   7.222 -0.0777 -0.0005 -0.3529
 8746SOL     H152437   7.106   1.196   7.281 -1.3097  0.8239 -0.6738
 8746SOL     H252438   7.070   1.170   7.137 -0.3301 -0.6556 -0.6673
 8747SOL    OH252439   7.358   5.892   0.861  0.3154  0.3946  0.1340
 8747SOL     H152440   7.350   5.842   0.942 -2.8115 -0.0612 -0.3741
 8747SOL     H252441   7.351   5.984   0.888  0.4611  0.3002  0.4890
 8748SOL    OH252442   6.092   1.247   1.048  0.1968 -0.4630 -0.1389
 8748SOL     H152443   6.077   1.152   1.057  1.8816 -1.0100 -2.4851
 8748SOL     H252444   6.164   1.253   0.985 -0.2633  2.4095 -0.4297
 8749SOL    OH252445   2.441   4.429   0.354 -0.2953  0.1543 -0.0018
 8749SOL     H152446   2.360   4.474   0.328 -0.0611  0.6789  0.1685
 8749SOL     H252447   2.458   4.461   0.443 -0.0064 -0.1065  0.0369
 8750SOL    OH252448   0.842   4.549   8.117 -0.3818 -0.1666 -0.4425
 8750SOL     H152449   0.751   4.557   8.145 -0.7091  0.4544 -1.6229
 8750SOL     H252450   0.874   4.639   8.112  0.4646 -0.3998  0.4474
 8751SOL    OH252451   3.613   5.256   6.565  0.3642  0.1646  0.5419
 8751SOL     H152452   3.521   5.282   6.575 -0.1601 -0.8934 -1.3322
 8751SOL     H252453   3.637   5.222   6.651 -0.9818  0.5193  1.0783
 8752SOL    OH252454   3.379   3.213   6.818 -0.0573 -0.6813 -0.1784
 8752SOL     H152455   3.388   3.266   6.897  1.9087  1.2387 -1.6123
 8752SOL     H252456   3.370   3.278   6.748 -1.6696 -2.3481 -1.5413
 8753SOL    OH252457   1.724   1.313   0.134 -0.2901  0.2135 -0.6856
 8753SOL     H152458   1.772   1.367   0.070 -0.3995 -1.1363 -1.9428
 8753SOL     H252459   1.785   1.242   0.155 -0.3222  0.5575  0.6015
 8754SOL    OH252460   1.993   4.915   7.389  0.1540 -0.1750 -0.6837
 8754SOL     H152461   1.974   4.839   7.334  0.6144 -1.8972  1.4522
 8754SOL     H252462   1.963   4.889   7.477  2.4797  1.1853  0.5574
 8755SOL    OH252463   0.052   7.870   1.198  0.3196  0.2256 -0.6129
 8755SOL     H152464   0.061   7.962   1.225 -0.8230 -0.0798  0.8601
 8755SOL     H252465   0.021   7.874   1.108  1.3640  1.2835 -0.9325
 8756SOL    OH252466   6.045   7.921   1.148  0.5184 -0.5042  0.1607
 8756SOL     H152467   6.134   7.925   1.112  0.2997  0.7551 -0.2868
 8756SOL     H252468   5.990   7.956   1.078 -0.0993  0.5242  1.1450
 8757SOL    OH252469   0.466   6.139   0.118  0.0395  0.1064  0.2491
 8757SOL     H152470   0.507   6.142   0.031  1.8820 -0.2565  1.0856
 8757SOL     H252471   0.523   6.193   0.173 -1.3526  0.6885  1.1586
 8758SOL    OH252472   5.182   1.324   7.587  0.4114 -0.9395  0.1758
 8758SOL     H152473   5.218   1.390   7.647 -2.0325  1.0804 -0.4972
 8758SOL     H252474   5.237   1.331   7.509  1.6963 -1.4375  1.0204
 8759SOL    OH252475   4.498   2.017   7.771  0.5325  0.5657 -0.4434
 8759SOL     H152476   4.593   2.026   7.764  0.5912  0.4755  0.1941
 8759SOL     H252477   4.485   1.939   7.826  0.0941  0.7950 -0.2195
 8760SOL    OH252478   7.929   0.408   7.962 -1.0560 -0.6172  0.4708
 8760SOL     H152479   7.941   0.393   8.056 -1.3643 -0.2553  0.5704
 8760SOL     H252480   7.863   0.344   7.936 -0.8172 -0.8588  0.4548
 8761SOL    OH252481   2.322   2.905   1.006  0.4488  0.0441  0.1162
 8761SOL     H152482   2.290   2.931   0.920 -0.3963 -1.1971  0.0420
 8761SOL     H252483   2.373   2.980   1.037  0.3044  0.7029 -1.2273
 8762SOL    OH252484   1.197   3.836   0.594  0.3496  0.2828 -0.3663
 8762SOL     H152485   1.211   3.777   0.668  2.2381  0.8546 -0.2281
 8762SOL     H252486   1.163   3.780   0.525  0.2191 -0.5869  0.3855
 8763SOL    OH252487  -0.000   0.400  -0.010  0.4658 -1.1146 -0.4600
 8763SOL     H152488  -0.036   0.329   0.044  0.8403  0.1400  1.4828
 8763SOL     H252489   0.068   0.439   0.044  0.1553  0.8552 -1.4400
 8764SOL    OH252490   1.117   4.639   7.396 -0.2152  0.7106 -0.3392
 8764SOL     H152491   1.072   4.604   7.318  1.5136 -0.9991 -0.6098
 8764SOL     H252492   1.053   4.698   7.436 -2.3839 -0.9777 -1.2014
 8765SOL    OH252493   2.212   0.747   7.398  0.3532  0.3387 -0.2763
 8765SOL     H152494   2.285   0.804   7.375  0.5029  0.4674  0.5161
 8765SOL     H252495   2.205   0.686   7.324  2.4394 -0.8449  0.4593
 8766SOL    OH252496   4.460   0.827   7.622  0.0255 -0.3452 -0.5350
 8766SOL     H152497   4.421   0.902   7.579 -0.2240 -0.4410 -0.4737
 8766SOL     H252498   4.453   0.756   7.559  0.7447 -0.1852 -0.8024
 8767SOL    OH252499   7.103   0.640   6.610  0.1845 -0.9985  0.0628
 8767SOL     H152500   7.062   0.593   6.684 -0.0402  0.5810  0.9612
 8767SOL     H252501   7.194   0.613   6.612  0.0458 -1.4523  0.5219
 8768SOL    OH252502   6.897   2.753   6.347 -0.3559 -0.0034 -0.6523
 8768SOL     H152503   6.835   2.813   6.389 -1.3366 -1.5809  0.1695
 8768SOL     H252504   6.843   2.682   6.313  0.8547 -0.6898 -1.1770
 8769SOL    OH252505   7.950   5.420   6.759 -0.0535  0.1294 -0.4462
 8769SOL     H152506   7.860   5.453   6.757  0.0048  0.2504 -1.3688
 8769SOL     H252507   7.949   5.350   6.824 -0.9436 -0.2555 -0.8748
 8770SOL    OH252508   4.871   6.934   0.815  0.0458 -0.5851  0.6009
 8770SOL     H152509   4.900   6.868   0.878 -1.9579 -1.0027  1.1085
 8770SOL     H252510   4.776   6.923   0.810 -0.2305  1.7521  0.1214
 8771SOL    OH252511   6.798   2.765   1.734  0.4260 -0.3742  0.1418
 8771SOL     H152512   6.828   2.852   1.709  0.1709 -0.3857 -0.2055
 8771SOL     H252513   6.875   2.709   1.720  0.7808 -0.1034  0.9668
 8772SOL    OH252514   3.688   5.738   6.616  0.7008  0.8746  0.6586
 8772SOL     H152515   3.598   5.713   6.638  0.5315  1.8955  1.1400
 8772SOL     H252516   3.692   5.832   6.633  0.6927  1.6497 -3.2038
 8773SOL    OH252517   4.980   2.805   2.723  0.1932 -0.1062  0.3300
 8773SOL     H152518   4.897   2.792   2.768 -0.0606  2.2886  0.5878
 8773SOL     H252519   5.038   2.739   2.762 -1.7663 -2.3595 -0.4403
 8774SOL    OH252520   7.754   1.169   8.306 -0.2426 -0.8557  0.2136
 8774SOL     H152521   7.764   1.264   8.300  1.4527 -1.0258  0.2513
 8774SOL     H252522   7.756   1.139   8.216  0.6518 -0.9908  0.2755
 8775SOL    OH252523   5.855   5.588   2.253 -0.1906 -0.0274 -0.7310
 8775SOL     H152524   5.767   5.616   2.277 -0.1538 -0.2164 -0.3796
 8775SOL     H252525   5.848   5.494   2.241  0.0779 -0.1152 -0.2065
 8776SOL    OH252526   2.463   1.763   6.479 -0.3028  0.5607  0.0465
 8776SOL     H152527   2.449   1.766   6.384  2.9246  1.2228 -0.4729
 8776SOL     H252528   2.543   1.711   6.489  0.4164  2.0645  2.2787
 8777SOL    OH252529   0.008   1.972   0.932  0.4817  0.5709  0.2850
 8777SOL     H152530   0.037   1.948   0.844 -0.3270  2.0266 -0.3978
 8777SOL     H252531   0.073   2.036   0.961 -1.2944  2.9149 -0.7588
 8778SOL    OH252532   0.078   7.110   2.712  0.1532  0.2659 -0.0068
 8778SOL     H152533   0.132   7.076   2.641 -1.4700 -2.1546 -0.1338
 8778SOL     H252534   0.107   7.201   2.723  2.4003 -0.2013 -1.8119
 8779SOL    OH252535   2.135   5.149   7.351 -0.7879  0.0127  0.0340
 8779SOL     H152536   2.155   5.197   7.432 -0.8742  0.8367 -0.4333
 8779SOL     H252537   2.096   5.067   7.381  0.5284 -0.3341  0.8809
 8780SOL    OH252538   4.238   4.316   0.456  0.0138  0.5842  0.0532
 8780SOL     H152539   4.301   4.261   0.409  1.7238  2.5155  0.0153
 8780SOL     H252540   4.290   4.359   0.524 -1.2894  2.1749  0.0633
 8781SOL    OH252541   3.652   1.130   1.319 -0.2398 -0.5346 -0.3944
 8781SOL     H152542   3.673   1.088   1.236 -0.6648 -1.6766  0.0712
 8781SOL     H252543   3.566   1.170   1.304 -0.4058 -0.9098 -0.4369
 8782SOL    OH252544   6.702   1.183   7.285 -0.8603  0.1018  0.3032
 8782SOL     H152545   6.773   1.248   7.286 -0.2866 -0.4037 -2.8607
 8782SOL     H252546   6.632   1.224   7.235 -1.3650 -0.8676  0.2038
 8783SOL    OH252547   6.299   0.365   2.699  0.4751 -0.2350 -0.1624
 8783SOL     H152548   6.349   0.291   2.664 -0.5719 -0.6010 -0.8876
 8783SOL     H252549   6.208   0.345   2.677 -0.0692  0.1210  1.6872
 8784SOL    OH252550   2.452   3.798   1.566  0.0622 -0.3580  0.0466
 8784SOL     H152551   2.428   3.861   1.634  0.5495  0.3114 -0.3952
 8784SOL     H252552   2.369   3.759   1.539 -0.2475  0.1291  0.2905
 8785SOL    OH252553   0.456   7.873   7.821 -0.2499 -0.7268  0.4094
 8785SOL     H152554   0.494   7.957   7.847  0.3593 -0.0858 -2.3665
 8785SOL     H252555   0.527   7.826   7.779 -1.0707 -1.8482  0.2470
 8786SOL    OH252556   7.124   3.676   1.098  0.1350  0.2384 -0.0541
 8786SOL     H152557   7.152   3.630   1.020  0.4896  0.2707  0.0531
 8786SOL     H252558   7.174   3.758   1.097  0.0970  0.2662  0.1738
 8787SOL    OH252559   0.197   6.484   6.386 -0.2670  0.1594  0.5712
 8787SOL     H152560   0.246   6.454   6.463 -0.7779 -1.4987  0.2669
 8787SOL     H252561   0.121   6.528   6.422  1.4401  2.7978  1.0502
 8788SOL    OH252562   3.358   4.073   1.875  0.1347 -0.4015  0.1269
 8788SOL     H152563   3.395   4.007   1.816  2.8169 -0.1479  1.4755
 8788SOL     H252564   3.389   4.157   1.841 -1.1649  0.0198 -0.0806
 8789SOL    OH252565   6.695   6.971   1.928 -0.7233 -0.1923  0.1311
 8789SOL     H152566   6.689   6.898   1.867 -0.1894  1.0988 -1.5035
 8789SOL     H252567   6.607   7.010   1.927 -0.3505  0.6414 -0.8630
 8790SOL    OH252568   7.630   5.274   2.772 -0.1917 -0.2261  0.2723
 8790SOL     H152569   7.582   5.197   2.801 -2.0551  0.3699 -1.1572
 8790SOL     H252570   7.666   5.248   2.687 -0.5296  0.3636 -0.0500
 8791SOL    OH252571   1.892   5.904   7.255 -0.2507  0.0967 -0.0429
 8791SOL     H152572   1.855   5.822   7.287  1.9389 -1.4414 -1.2871
 8791SOL     H252573   1.840   5.925   7.177 -1.4444  0.4204  0.8351
 8792SOL    OH252574   0.761   6.709   0.248  0.6397  0.0401 -0.0268
 8792SOL     H152575   0.815   6.630   0.256  1.1132  0.5039  1.6298
 8792SOL     H252576   0.814   6.769   0.196  2.0071  0.6814  2.0128
 8793SOL    OH252577   0.868   0.799   8.052  0.1889  0.0717 -0.2686
 8793SOL     H152578   0.871   0.775   8.145 -0.0085 -1.4342 -0.6370
 8793SOL     H252579   0.794   0.860   8.045  0.9644  1.1412  0.7680
 8794SOL    OH252580   4.701   5.604   1.983  0.3177 -0.1020  0.7694
 8794SOL     H152581   4.650   5.649   2.051 -0.3053 -0.5587  0.6025
 8794SOL     H252582   4.635   5.560   1.929  0.7100  1.4250 -0.9805
 8795SOL    OH252583   1.851   2.785   7.550  0.3403  0.1440  0.1801
 8795SOL     H152584   1.867   2.874   7.519 -2.5311 -0.0860 -2.2171
 8795SOL     H252585   1.832   2.794   7.643 -0.9110  2.1978 -0.2431
 8796SOL    OH252586   5.090   7.936   6.005  0.1520 -0.5954 -0.0360
 8796SOL     H152587   5.177   7.919   5.969  0.4968 -1.5585  1.1998
 8796SOL     H252588   5.066   7.854   6.048  0.0770  0.7246  2.5608
 8797SOL    OH252589   4.425   5.704   7.757  0.4057  0.6201  0.3054
 8797SOL     H152590   4.440   5.787   7.802  2.4836 -0.1243  1.0824
 8797SOL     H252591   4.480   5.709   7.678 -0.3403  0.4358 -0.2299
 8798SOL    OH252592   2.306   2.492   6.897  0.0878 -0.0953 -0.1089
 8798SOL     H152593   2.353   2.542   6.963 -0.8167  1.2580 -0.4618
 8798SOL     H252594   2.217   2.485   6.931  0.0441 -0.8656 -0.3851
 8799SOL    OH252595   2.694   6.821   8.112 -0.2806  0.1998  0.1568
 8799SOL     H152596   2.759   6.890   8.120  0.9501 -0.5959 -2.6452
 8799SOL     H252597   2.612   6.867   8.097 -0.0282  1.1151  1.4391
 8800SOL    OH252598   4.952   5.338   6.660 -0.7492 -0.0543 -0.1618
 8800SOL     H152599   5.001   5.259   6.637 -0.0402  0.2946  0.1356
 8800SOL     H252600   4.991   5.368   6.742 -2.5402 -0.6704  0.9392
 8801SOL    OH252601   1.985   7.077   0.322 -0.4059 -0.2134  0.2993
 8801SOL     H152602   1.963   7.063   0.415  0.2328 -0.4434  0.4146
 8801SOL     H252603   2.068   7.032   0.310  0.8258  1.9909  0.2720
 8802SOL    OH252604   6.169   2.389   1.905 -0.2475  0.0787 -0.1287
 8802SOL     H152605   6.194   2.384   1.813 -1.7340  1.2123 -0.6199
 8802SOL     H252606   6.193   2.478   1.932 -0.4403 -0.0236  0.3859
 8803SOL    OH252607   5.512   2.415   1.709  0.3164  0.7587  0.5592
 8803SOL     H152608   5.472   2.332   1.682 -0.2436  0.7519  1.3755
 8803SOL     H252609   5.474   2.480   1.651  1.8529  0.2540 -1.0578
 8804SOL    OH252610   5.899   3.661   1.061 -0.6658 -0.5377 -0.3363
 8804SOL     H152611   5.858   3.699   0.984  0.6851  0.9994 -0.3392
 8804SOL     H252612   5.993   3.680   1.049 -0.1825 -2.3275  0.5428
 8805SOL    OH252613   4.213   4.420   1.723  0.7045 -0.4128  0.1417
 8805SOL     H152614   4.276   4.486   1.750 -1.0167  2.6321 -2.8388
 8805SOL     H252615   4.261   4.363   1.664  1.7746 -0.8334  1.4026
 8806SOL    OH252616   3.407   0.355   8.052 -0.3408 -0.0281 -0.5639
 8806SOL     H152617   3.459   0.275   8.050 -1.1205 -0.5553 -0.2115
 8806SOL     H252618   3.466   0.422   8.084 -0.0173 -0.7286  0.3176
 8807SOL    OH252619   6.551   6.864   8.184 -0.3198 -0.0596 -0.0196
 8807SOL     H152620   6.456   6.868   8.193 -0.3991 -1.6715  0.0324
 8807SOL     H252621   6.565   6.820   8.100  0.4009  2.6591 -1.3785
 8808SOL    OH252622   4.798   3.778   0.460 -0.5758  0.0134 -0.5351
 8808SOL     H152623   4.884   3.819   0.465 -0.5786 -0.1356  1.0498
 8808SOL     H252624   4.738   3.851   0.443 -0.6814  0.8442  3.0944
 8809SOL    OH252625   6.034   2.131   6.535  0.1205  0.4454  0.0909
 8809SOL     H152626   5.989   2.066   6.589 -1.8911  0.0958 -1.9550
 8809SOL     H252627   6.112   2.085   6.503 -0.2808 -0.3396  0.2237
 8810SOL    OH252628   1.021   2.755   6.911 -0.6650  0.1383  0.2246
 8810SOL     H152629   1.112   2.765   6.939 -0.6198  0.5977 -0.0918
 8810SOL     H252630   0.982   2.699   6.979 -0.3432  0.5625  0.7657
 8811SOL    OH252631   7.026   4.978   6.050 -0.1986 -0.4647  0.6422
 8811SOL     H152632   7.065   5.003   6.134 -2.0668 -0.2272  1.4490
 8811SOL     H252633   6.975   4.900   6.069 -0.6324 -0.4167 -0.2894
 8812SOL    OH252634   1.339   7.604   5.644  0.6000 -0.2738 -0.2740
 8812SOL     H152635   1.429   7.605   5.675  0.8105 -0.3396 -0.8851
 8812SOL     H252636   1.295   7.538   5.698  0.9146 -0.2424  0.0195
 8813SOL    OH252637   0.934   3.163   6.260  0.1136 -0.1883 -0.0795
 8813SOL     H152638   0.896   3.197   6.180  0.3280 -0.1975 -0.1857
 8813SOL     H252639   1.017   3.122   6.233  0.0206 -0.4945  0.0941
 8814SOL    OH252640   7.862   1.447   1.063 -0.1573 -0.5620  0.0792
 8814SOL     H152641   7.884   1.534   1.027 -1.7461 -0.9749 -2.0177
 8814SOL     H252642   7.855   1.391   0.985 -0.4227 -2.2775  1.3253
 8815SOL    OH252643   3.466   1.126   6.236  0.1202  0.1380  0.2680
 8815SOL     H152644   3.546   1.093   6.196 -0.2628  0.1594 -0.5315
 8815SOL     H252645   3.495   1.175   6.312  0.9432  1.1511 -0.6918
 8816SOL    OH252646   1.802   5.016   5.764  0.5178 -0.0604  0.2054
 8816SOL     H152647   1.757   4.972   5.692  1.2422  0.0089 -0.2991
 8816SOL     H252648   1.890   5.032   5.731  1.1415 -0.8696  1.4494
 8817SOL    OH252649   3.374   0.947   0.647 -0.7380 -0.1627 -0.0390
 8817SOL     H152650   3.339   0.914   0.564 -2.1591 -0.0756  0.4943
 8817SOL     H252651   3.361   0.875   0.708  1.1771 -0.5720 -0.0910
 8818SOL    OH252652   2.679   2.005   0.913 -0.3231 -0.7730 -0.0424
 8818SOL     H152653   2.602   1.999   0.856 -1.2939 -0.0255  1.1528
 8818SOL     H252654   2.703   1.914   0.930 -1.7220 -1.0398  0.5825
 8819SOL    OH252655   0.496   0.332   6.458 -0.4261 -0.3120  0.0714
 8819SOL     H152656   0.518   0.364   6.546 -0.0430 -0.9813  0.2200
 8819SOL     H252657   0.514   0.238   6.462 -1.1661 -0.4724 -0.4896
 8820SOL    OH252658   5.510   1.702   1.961  0.2403  0.4835  0.1992
 8820SOL     H152659   5.470   1.645   1.896 -0.3860  0.6753  0.4104
 8820SOL     H252660   5.501   1.790   1.924 -1.1513  0.7164  1.0595
 8821SOL    OH252661   5.861   4.072   0.693  0.0612  0.1727 -0.5661
 8821SOL     H152662   5.833   4.159   0.722  0.1024 -0.0931  0.2768
 8821SOL     H252663   5.834   4.067   0.601 -1.2468  0.5194 -0.2084
 8822SOL    OH252664   6.273   6.616   1.461 -0.5943 -0.2292 -0.0942
 8822SOL     H152665   6.346   6.646   1.516 -1.2231  1.7686 -0.3407
 8822SOL     H252666   6.294   6.647   1.373 -1.4051 -0.2252 -0.2916
 8823SOL    OH252667   4.315   5.262   6.559  0.4048 -0.2426 -0.2461
 8823SOL     H152668   4.364   5.338   6.589 -3.1837  1.8264  0.6592
 8823SOL     H252669   4.269   5.231   6.637  0.0718 -1.9837 -1.1086
 8824SOL    OH252670   7.020   2.607   0.839  0.0821 -0.0772 -0.0389
 8824SOL     H152671   6.948   2.584   0.779 -2.3820 -2.0822  3.4902
 8824SOL     H252672   7.057   2.522   0.865  1.4881  0.7907  0.8136
 8825SOL    OH252673   6.382   2.019   0.123 -0.2311 -0.2717 -0.1282
 8825SOL     H152674   6.302   2.027   0.070 -2.3751  0.2961  3.0568
 8825SOL     H252675   6.450   1.994   0.060 -2.9218 -0.8941 -2.9057
 8826SOL    OH252676   3.180   6.269   0.739  0.3441  0.6644 -0.4994
 8826SOL     H152677   3.240   6.201   0.707  0.9183  0.9765 -0.0871
 8826SOL     H252678   3.227   6.311   0.811 -1.1847 -0.4116  1.1461
 8827SOL    OH252679   5.414   1.598   0.683  0.1188 -0.0655  0.2850
 8827SOL     H152680   5.475   1.671   0.681 -1.4044  1.2400  0.1522
 8827SOL     H252681   5.469   1.520   0.677  1.7102  1.0992 -0.5541
 8828SOL    OH252682   1.818   5.157   5.981 -0.0055  0.2257  0.4686
 8828SOL     H152683   1.814   5.106   5.899  1.0957 -0.9825  1.1472
 8828SOL     H252684   1.774   5.239   5.960  0.0886 -0.1477 -1.2958
 8829SOL    OH252685   2.153   0.530   0.444  0.5054  0.5149  0.4806
 8829SOL     H152686   2.095   0.507   0.371 -1.0146  0.7931  1.5827
 8829SOL     H252687   2.241   0.510   0.411 -0.0681  1.4067 -1.7313
 8830SOL    OH252688   3.030   2.714   7.640  0.4092  0.1160  0.5675
 8830SOL     H152689   3.079   2.701   7.559  0.6837  1.5648  0.4782
 8830SOL     H252690   3.031   2.809   7.653 -2.3715  0.1765  0.5711
 8831SOL    OH252691   6.092   2.033   1.676  0.3570 -0.0485  0.0402
 8831SOL     H152692   6.173   2.055   1.630  0.5812 -1.3689 -0.1961
 8831SOL     H252693   6.090   1.938   1.680 -1.7537 -0.0766 -0.9511
 8832SOL    OH252694   7.884   5.717   2.469  0.1300  0.1717 -0.2455
 8832SOL     H152695   7.924   5.637   2.434 -1.4971 -1.4577  1.4660
 8832SOL     H252696   7.951   5.754   2.526  0.3622 -0.7981  0.1298
 8833SOL    OH252697   0.954   2.669   7.590  0.0584 -0.2836 -0.2366
 8833SOL     H152698   0.933   2.633   7.676 -0.5437 -0.2700 -0.3823
 8833SOL     H252699   0.941   2.596   7.529  0.1124 -0.1835 -0.3688
 8834SOL    OH252700   1.151   1.981   0.966  0.1004 -0.3011  0.2340
 8834SOL     H152701   1.097   1.986   1.045  0.5606  0.1536  0.5224
 8834SOL     H252702   1.241   1.983   0.998  0.3255  2.4528 -0.4345
 8835SOL    OH252703   2.999   6.229   6.212 -0.0349  0.3645  0.4723
 8835SOL     H152704   3.047   6.146   6.201  1.6585  1.4598 -0.7260
 8835SOL     H252705   2.999   6.244   6.307 -1.4113 -1.5807  0.8208
 8836SOL    OH252706   0.145   2.189   0.691 -0.2271  0.0973  0.4834
 8836SOL     H152707   0.152   2.217   0.782  0.2109 -0.1575  0.5284
 8836SOL     H252708   0.193   2.256   0.642  3.5791 -2.1712  0.8852
 8837SOL    OH252709   7.912   6.736   1.022  0.3872  0.1952  0.0043
 8837SOL     H152710   7.881   6.649   1.045 -0.7304  0.5169 -0.2422
 8837SOL     H252711   7.982   6.721   0.959  0.2966 -0.5281  0.0740
 8838SOL    OH252712   0.224   5.740   7.197  0.3208  0.1570  0.8377
 8838SOL     H152713   0.178   5.658   7.215 -0.2972 -0.0804 -1.6988
 8838SOL     H252714   0.163   5.808   7.226 -0.2811 -0.2282  0.5025
 8839SOL    OH252715   5.266   1.858   6.768  0.4524 -0.0951 -0.3295
 8839SOL     H152716   5.272   1.939   6.819  0.3009 -0.9733  1.1125
 8839SOL     H252717   5.333   1.801   6.805  0.6603 -0.5853 -1.4360
 8840SOL    OH252718   0.448   5.915   0.443 -0.2528  0.0674 -0.4672
 8840SOL     H152719   0.389   5.848   0.409 -1.9696  1.7523 -0.9311
 8840SOL     H252720   0.527   5.906   0.391 -0.5747 -1.3798 -0.7319
 8841SOL    OH252721   4.616   4.283   6.598  0.2827  0.2133  0.4498
 8841SOL     H152722   4.569   4.200   6.611  0.1436  0.3596  0.8760
 8841SOL     H252723   4.552   4.339   6.554 -0.0902  0.5602  1.4309
 8842SOL    OH252724   5.665   6.164   7.209 -0.6323  0.0749 -0.3067
 8842SOL     H152725   5.596   6.150   7.144 -1.2191  0.6992  0.1771
 8842SOL     H252726   5.699   6.076   7.227 -2.3066 -0.4338  0.5337
 8843SOL    OH252727   7.504   1.001   0.228 -0.3689  0.4531  0.2462
 8843SOL     H152728   7.458   1.043   0.156  0.1346 -0.8756 -0.8686
 8843SOL     H252729   7.594   1.034   0.221 -0.2057 -0.0517 -0.0297
 8844SOL    OH252730   5.011   6.871   7.538  0.3799 -0.1582  0.0782
 8844SOL     H152731   5.010   6.918   7.622  0.4898 -1.0394  0.5709
 8844SOL     H252732   5.103   6.872   7.511  0.7068 -1.8796  1.0961
 8845SOL    OH252733   6.261   6.659   0.056  0.0178 -0.0388  0.1679
 8845SOL     H152734   6.332   6.680   0.116 -0.2320  1.5731 -0.0753
 8845SOL     H252735   6.181   6.676   0.105 -0.1901  0.4516 -0.3300
 8846SOL    OH252736   7.000   0.052   1.449 -0.1519  0.0575 -0.6620
 8846SOL     H152737   6.990  -0.039   1.476 -1.2360 -0.0747 -1.4678
 8846SOL     H252738   7.047   0.093   1.521  0.6932 -1.2244 -0.4731
 8847SOL    OH252739   6.829   7.774   6.331  0.3246  0.2888  0.0119
 8847SOL     H152740   6.748   7.812   6.364  0.7283  2.7753 -1.7337
 8847SOL     H252741   6.804   7.727   6.251  0.4724  0.2647 -0.0214
 8848SOL    OH252742   2.114   1.456   7.975  0.1637 -0.0589 -0.2724
 8848SOL     H152743   2.125   1.543   8.012  0.3338  0.0245 -0.5191
 8848SOL     H252744   2.098   1.471   7.882  3.0760 -0.4062 -0.8869
 8849SOL    OH252745   7.361   3.924   7.386 -0.4116  0.6050 -0.0832
 8849SOL     H152746   7.330   3.837   7.411 -1.0820  0.3958 -1.5541
 8849SOL     H252747   7.325   3.983   7.453  0.2313 -0.2750  1.0376
 8850SOL    OH252748   3.035   0.076   7.480 -0.1201  0.3220 -0.2104
 8850SOL     H152749   2.998  -0.006   7.450 -0.7720  1.3457 -2.3293
 8850SOL     H252750   2.980   0.102   7.554 -1.5838  0.1677 -1.2252
 8851SOL    OH252751   0.044   0.870   7.410 -0.4239 -0.2181 -0.2425
 8851SOL     H152752  -0.020   0.937   7.432 -1.3992 -1.8516  2.0620
 8851SOL     H252753  -0.006   0.789   7.407  1.2314 -1.2659 -0.1165
 8852SOL    OH252754   5.886   3.097   1.403  0.4024  0.2767  0.6112
 8852SOL     H152755   5.957   3.070   1.462  2.1850  1.4201 -0.9753
 8852SOL     H252756   5.896   3.192   1.395 -0.0819  0.1835 -1.2230
 8853SOL    OH252757   5.209   0.645   1.031 -0.2237 -0.5240 -0.0085
 8853SOL     H152758   5.183   0.650   0.939  0.0653 -0.0116 -0.0614
 8853SOL     H252759   5.235   0.734   1.054 -0.0961 -0.6925  0.5114
 8854SOL    OH252760   6.934   5.509   1.035 -0.3976  0.0338 -0.1055
 8854SOL     H152761   6.879   5.453   0.982  0.2453 -0.1537 -0.5832
 8854SOL     H252762   7.002   5.540   0.975  0.0941  0.1480  0.4999
 8855SOL    OH252763   5.262   7.850   0.874  0.0849 -0.4161  0.0906
 8855SOL     H152764   5.283   7.911   0.945 -2.5475  0.9060 -0.2058
 8855SOL     H252765   5.316   7.773   0.893  2.3734  1.3870  1.3095
 8856SOL    OH252766   0.622   3.053   6.534  0.2337  0.1626  0.4461
 8856SOL     H152767   0.610   3.031   6.627  0.2575  1.4581  0.7692
 8856SOL     H252768   0.555   3.119   6.517  0.7003  0.4513 -0.2701
 8857SOL    OH252769   5.328   4.834   0.581 -0.2736 -0.1548 -1.0222
 8857SOL     H152770   5.262   4.899   0.606 -0.9840 -0.8430 -1.1083
 8857SOL     H252771   5.313   4.761   0.640  0.1985 -0.4530 -1.2694
 8858SOL    OH252772   0.428   3.875   6.677 -0.1881  0.6415  0.3811
 8858SOL     H152773   0.370   3.919   6.739  0.5965 -0.3602  1.8438
 8858SOL     H252774   0.459   3.797   6.723 -0.5968 -0.8230 -1.7446
 8859SOL    OH252775   0.449   4.567   1.336  0.1376 -0.0637 -0.0951
 8859SOL     H152776   0.473   4.483   1.297  0.0863 -0.2343  0.2336
 8859SOL     H252777   0.410   4.617   1.265  0.5137 -0.1768 -0.3830
 8860SOL    OH252778   6.623   0.864   7.261  0.5622 -0.2270  0.0694
 8860SOL     H152779   6.593   0.850   7.171  0.1169 -1.3619  0.3930
 8860SOL     H252780   6.556   0.922   7.298  1.6024  1.5922 -0.7982
 8861SOL    OH252781   1.497   1.541   5.870 -0.1669 -0.2775  0.2422
 8861SOL     H152782   1.478   1.629   5.902 -0.0898  0.0681 -0.6704
 8861SOL     H252783   1.551   1.554   5.792  0.2473 -1.1447  0.3674
 8862SOL    OH252784   1.766   7.019   7.774  0.6486  0.1062  0.0212
 8862SOL     H152785   1.705   7.037   7.845  0.6225  0.6113 -0.1243
 8862SOL     H252786   1.810   6.938   7.799 -0.7490 -0.7769 -0.3189
 8863SOL    OH252787   0.061   3.619   0.385  0.4044  0.3346 -0.2554
 8863SOL     H152788   0.036   3.711   0.387  0.2856  0.2900  1.3137
 8863SOL     H252789  -0.021   3.571   0.399  0.3430 -0.0440 -1.8357
 8864SOL    OH252790   2.744   1.962   1.665 -0.4614 -0.3382 -0.4137
 8864SOL     H152791   2.684   1.940   1.594  0.8371  0.7065 -1.8739
 8864SOL     H252792   2.831   1.961   1.624  0.1692  1.7268  0.8032
 8865SOL    OH252793   5.170   4.633   6.180 -0.2332 -0.0950 -0.3816
 8865SOL     H152794   5.172   4.561   6.243  3.2799 -1.1204 -1.5658
 8865SOL     H252795   5.262   4.647   6.156 -1.0040  3.5566 -1.5968
 8866SOL    OH252796   0.792   3.595   1.151 -0.5799  0.4506 -0.1625
 8866SOL     H152797   0.813   3.584   1.058 -1.7120 -0.9601 -0.2511
 8866SOL     H252798   0.820   3.514   1.192 -1.4387  0.4874  0.5021
 8867SOL    OH252799   0.145   6.287   1.002 -0.5716 -0.0697 -0.8891
 8867SOL     H152800   0.213   6.278   0.935  0.3992  1.0913 -0.0865
 8867SOL     H252801   0.100   6.368   0.979 -0.1096  0.4368 -0.0497
 8868SOL    OH252802   5.694   4.541   2.320 -0.3831  0.0692 -0.1349
 8868SOL     H152803   5.689   4.449   2.345 -0.8350 -0.1631 -1.0390
 8868SOL     H252804   5.671   4.589   2.400  1.1909 -0.5516  0.7144
 8869SOL    OH252805   6.532   4.602   0.901  0.6879 -0.2332 -0.0169
 8869SOL     H152806   6.545   4.602   0.806  0.5809 -0.2280 -0.0314
 8869SOL     H252807   6.489   4.518   0.919  2.1795 -0.9587  0.2230
 8870SOL    OH252808   1.996   5.385   2.504  0.0974  0.5011  0.0947
 8870SOL     H152809   2.031   5.440   2.574 -0.7963  0.2459  0.7621
 8870SOL     H252810   2.030   5.297   2.524 -0.5889  0.3307  0.5085
 8871SOL    OH252811   4.497   7.204   0.175  0.2442  0.0381 -0.1015
 8871SOL     H152812   4.570   7.220   0.235  1.1233 -1.2657 -0.8058
 8871SOL     H252813   4.477   7.111   0.186  0.2083 -0.1447 -1.6035
 8872SOL    OH252814   6.875   6.791   6.723 -0.1542  0.0442 -0.2815
 8872SOL     H152815   6.915   6.862   6.773  0.3994  1.0785 -2.1433
 8872SOL     H252816   6.799   6.831   6.682 -1.1699 -1.0526  0.4861
 8873SOL    OH252817   0.694   7.480   0.341 -0.2307 -0.1354  0.5727
 8873SOL     H152818   0.687   7.503   0.248  0.8324 -1.1155  0.2366
 8873SOL     H252819   0.733   7.393   0.341  1.0114  0.3981  1.9862
 8874SOL    OH252820   6.874   3.502   2.284 -0.3266  0.4555  0.2068
 8874SOL     H152821   6.845   3.505   2.375 -1.4004  1.3025 -0.1565
 8874SOL     H252822   6.797   3.527   2.233  0.5653  1.0416 -0.8779
 8875SOL    OH252823   3.056   6.128   1.907  0.1493 -0.6062  0.1253
 8875SOL     H152824   2.968   6.097   1.928 -0.2991  0.7140  0.1709
 8875SOL     H252825   3.045   6.183   1.830  0.6715  1.0279  1.2092
 8876SOL    OH252826   1.856   3.682   0.369 -0.1280 -0.1503 -0.5430
 8876SOL     H152827   1.888   3.714   0.452  0.2614 -1.1462 -0.3016
 8876SOL     H252828   1.868   3.755   0.308 -0.9078  0.7579  0.3843
 8877SOL    OH252829   7.579   6.714   1.623  0.3418 -0.0810 -0.7822
 8877SOL     H152830   7.633   6.775   1.573  1.9368  0.7782  1.8646
 8877SOL     H252831   7.639   6.644   1.648 -0.4461 -0.5387 -0.1435
 8878SOL    OH252832   7.408   6.000   1.323 -0.2496 -0.3343 -0.0154
 8878SOL     H152833   7.423   6.077   1.377 -0.4952 -0.0807 -0.3157
 8878SOL     H252834   7.426   5.926   1.382  1.1888 -0.0420 -0.0697
 8879SOL    OH252835   3.605   4.673   8.289  0.1750 -0.3856 -0.1110
 8879SOL     H152836   3.602   4.667   8.193  0.4584  0.5388 -0.1818
 8879SOL     H252837   3.591   4.766   8.308 -2.0034 -0.8904  0.8491
 8880SOL    OH252838   6.156   6.944   1.219  0.4949  0.9998 -0.4515
 8880SOL     H152839   6.065   6.919   1.236  0.6283  1.5397  1.1703
 8880SOL     H252840   6.159   7.037   1.241  1.5780  0.8357  0.1242
 8881SOL    OH252841   1.230   7.934   0.847  0.1291 -0.7081  0.2880
 8881SOL     H152842   1.200   7.985   0.923 -2.1882 -0.9285 -0.4477
 8881SOL     H252843   1.250   7.848   0.883  0.0175 -0.5124  0.8243
 8882SOL    OH252844   3.585   4.683   7.999  0.3788  0.3687  0.0508
 8882SOL     H152845   3.608   4.699   7.907 -0.3759  1.9943  0.1246
 8882SOL     H252846   3.598   4.589   8.011  0.6278  0.1639 -1.6778
 8883SOL    OH252847   6.181   1.557   7.945 -0.0362 -0.0540 -0.0964
 8883SOL     H152848   6.274   1.535   7.945 -0.4378 -1.8479  1.4514
 8883SOL     H252849   6.136   1.473   7.951 -1.7409  0.8644  0.3545
 8884SOL    OH252850   1.562   7.064   7.482  0.1169 -0.6730  0.2195
 8884SOL     H152851   1.589   6.982   7.441  0.0875 -0.1425 -0.8559
 8884SOL     H252852   1.476   7.045   7.520 -0.0386 -1.0354 -0.3187
 8885SOL    OH252853   5.266   3.097   2.097  1.0524 -0.2773  0.5623
 8885SOL     H152854   5.283   3.191   2.098  1.2933 -0.2987 -0.7418
 8885SOL     H252855   5.268   3.073   2.005 -2.6735 -0.9285  0.5705
 8886SOL    OH252856   3.596   4.945   0.068  0.0788  0.0805 -0.5967
 8886SOL     H152857   3.538   5.008   0.025 -1.7036 -0.7708  0.5236
 8886SOL     H252858   3.633   4.994   0.142 -2.0951 -0.4257  0.8864
 8887SOL    OH252859   1.882   7.546   6.886  0.5812  0.3936  0.3837
 8887SOL     H152860   1.865   7.452   6.879 -0.1577  0.4781  0.9297
 8887SOL     H252861   1.946   7.553   6.956  1.9606  0.1697 -0.8391
 8888SOL    OH252862   3.114   5.720   0.782  0.4004  0.3346  0.7809
 8888SOL     H152863   3.190   5.670   0.813  1.1969  0.5562 -0.7887
 8888SOL     H252864   3.066   5.659   0.728  0.9817  1.0320 -0.5426
 8889SOL    OH252865   7.881   6.572   7.025  0.9621 -0.6723  0.2518
 8889SOL     H152866   7.905   6.494   6.975  1.3923 -1.0869  1.0988
 8889SOL     H252867   7.958   6.629   7.018  1.3775 -1.1174  1.2113
 8890SOL    OH252868   1.406   4.194   2.024  0.4285 -0.1830  0.0882
 8890SOL     H152869   1.366   4.196   1.937 -0.7002  1.4147  0.6247
 8890SOL     H252870   1.489   4.240   2.014 -1.4062  3.3771  0.6519
 8891SOL    OH252871   3.724   2.473   6.191  0.1137  0.7829  0.3682
 8891SOL     H152872   3.657   2.450   6.255  0.7102 -0.2794  0.6185
 8891SOL     H252873   3.751   2.389   6.153  0.6531  1.2892 -0.3774
 8892SOL    OH252874   3.165   1.935   0.775 -0.0539 -0.2698 -0.5596
 8892SOL     H152875   3.197   1.942   0.866 -1.5799  1.1474 -0.1007
 8892SOL     H252876   3.185   1.846   0.749  3.0450  0.1651  0.1708
 8893SOL    OH252877   2.107   1.715   8.082 -0.4094  0.3722 -0.1076
 8893SOL     H152878   2.149   1.800   8.066  0.8499 -0.2276 -0.0363
 8893SOL     H252879   2.025   1.720   8.034 -0.4583  1.7309  0.1007
 8894SOL    OH252880   4.262   4.421   6.944  0.1381  0.0250  0.2835
 8894SOL     H152881   4.193   4.479   6.910 -0.3355 -0.0298  1.1437
 8894SOL     H252882   4.215   4.356   6.996  0.8825  0.3309  1.3563
 8895SOL    OH252883   0.935   5.864   6.365 -0.0745  0.3437  0.1389
 8895SOL     H152884   0.941   5.935   6.302 -1.0531 -0.9204 -1.4204
 8895SOL     H252885   1.017   5.815   6.354 -1.1505 -1.1206 -1.7350
 8896SOL    OH252886   3.788   0.580   7.944  0.0202  0.3523 -0.0397
 8896SOL     H152887   3.851   0.512   7.920 -1.4139 -0.8598 -0.4585
 8896SOL     H252888   3.840   0.661   7.947  1.6246 -0.6489 -0.1623
 8897SOL    OH252889   5.515   2.455   1.304 -0.0172  0.9240  0.1041
 8897SOL     H152890   5.595   2.403   1.309  0.6421  1.9604  0.5730
 8897SOL     H252891   5.503   2.472   1.210  1.1770  2.0616  0.1455
 8898SOL    OH252892   3.331   2.458   0.185  0.6500 -0.0474  0.1484
 8898SOL     H152893   3.362   2.469   0.275  1.8781  1.4660 -0.4417
 8898SOL     H252894   3.396   2.503   0.131 -0.6566  0.0202 -1.4144
 8899SOL    OH252895   2.529   0.714   7.907  0.4294  0.3717  0.3920
 8899SOL     H152896   2.462   0.680   7.966 -0.7803  0.6931 -0.7751
 8899SOL     H252897   2.501   0.687   7.820  0.4748  2.6357 -0.3744
 8900SOL    OH252898   3.630   2.696   6.758 -0.4987  0.1076 -0.0885
 8900SOL     H152899   3.589   2.781   6.773 -0.6885  0.5330 -2.7337
 8900SOL     H252900   3.565   2.632   6.786 -0.7637  0.8244  0.9399
 8901SOL    OH252901   3.459   2.721   1.736 -0.3168 -1.0182  0.2410
 8901SOL     H152902   3.420   2.705   1.650 -1.7102 -1.2088  0.8840
 8901SOL     H252903   3.384   2.725   1.795  0.4807  0.9951  1.1626
 8902SOL    OH252904   4.367   5.466   1.497  0.3418 -0.3004  0.3085
 8902SOL     H152905   4.357   5.403   1.426  0.1509  0.7128 -0.5652
 8902SOL     H252906   4.435   5.526   1.467 -2.2615  2.2724 -0.5850
 8903SOL    OH252907   5.280   3.500   2.474  0.3557  0.2193 -0.4318
 8903SOL     H152908   5.267   3.593   2.491 -0.7374  0.1575 -0.8995
 8903SOL     H252909   5.357   3.477   2.525  0.8227  1.4557 -0.5683
 8904SOL    OH252910   4.718   6.228   0.483 -0.0233 -0.1875 -0.1790
 8904SOL     H152911   4.632   6.271   0.474 -0.9353 -1.6723  1.1428
 8904SOL     H252912   4.732   6.223   0.578  1.1714 -0.6550 -0.3791
 8905SOL    OH252913   3.895   0.103   5.992 -0.0164 -0.0028 -0.0019
 8905SOL     H152914   3.984   0.117   5.959  0.0844  1.5308  0.8637
 8905SOL     H252915   3.904   0.108   6.087 -0.8133 -1.2610  0.1550
 8906SOL    OH252916   5.705   0.302   1.905 -0.7046  0.7718 -0.5143
 8906SOL     H152917   5.691   0.246   1.828 -1.5774 -2.1408  1.7034
 8906SOL     H252918   5.620   0.342   1.921 -0.8160  0.4753 -0.3686
 8907SOL    OH252919   2.964   0.684   6.615 -0.3611 -0.4106  0.0288
 8907SOL     H152920   2.950   0.682   6.710  0.1628  0.2999  0.1247
 8907SOL     H252921   2.898   0.625   6.580 -1.5299  0.4585  0.7276
 8908SOL    OH252922   5.238   0.043   7.396 -0.6099 -0.1445  0.6602
 8908SOL     H152923   5.164   0.103   7.399  1.8345  2.9931  1.3412
 8908SOL     H252924   5.269   0.047   7.306  1.9353  2.7895  1.5753
 8909SOL    OH252925   2.425   3.178   0.019 -0.1025  0.1417  0.4977
 8909SOL     H152926   2.350   3.136   0.062  0.0976  0.6072  1.3251
 8909SOL     H252927   2.385   3.240  -0.042 -0.3939 -0.4671  0.0643
 8910SOL    OH252928   4.330   5.413   0.639  0.2537 -0.6733  0.0660
 8910SOL     H152929   4.425   5.405   0.653  0.4487  1.5370  0.2742
 8910SOL     H252930   4.312   5.355   0.565  2.3537  1.2912 -2.1018
 8911SOL    OH252931   2.465   5.706   0.189 -0.1093 -0.1678  1.0291
 8911SOL     H152932   2.396   5.654   0.230  0.6658 -0.5081  1.9323
 8911SOL     H252933   2.507   5.752   0.262 -0.4581  1.3534  0.3015
 8912SOL    OH252934   2.005   0.559   6.594  0.0256 -0.1130  0.1997
 8912SOL     H152935   1.920   0.562   6.549 -0.0869 -0.2112  0.4081
 8912SOL     H252936   2.025   0.651   6.613 -0.3641 -0.1450  0.7764
 8913SOL    OH252937   6.480   1.928   6.964 -0.3059 -0.2629 -0.2268
 8913SOL     H152938   6.565   1.884   6.971 -0.1457  0.4349  3.5850
 8913SOL     H252939   6.416   1.857   6.972 -0.0842 -0.6126 -1.5121
 8914SOL    OH252940   4.164   0.105   1.975  0.3480  0.7889  0.0692
 8914SOL     H152941   4.255   0.078   1.983  0.4484  1.1895  0.2838
 8914SOL     H252942   4.161   0.194   2.012 -0.2639  0.4998  0.7297
 8915SOL    OH252943   2.293   3.435   0.395 -0.3120 -0.1623 -0.2319
 8915SOL     H152944   2.281   3.352   0.441 -0.7476  2.2979  4.3214
 8915SOL     H252945   2.220   3.439   0.333 -0.8236 -2.6752  0.1359
 8916SOL    OH252946   3.192   0.866   6.585  0.2789 -1.4896 -0.0334
 8916SOL     H152947   3.203   0.885   6.678  1.2862 -3.2976  0.2447
 8916SOL     H252948   3.145   0.782   6.583  0.9300 -1.8389 -1.1391
 8917SOL    OH252949   4.765   1.617   0.548 -0.4265  0.3894  0.0184
 8917SOL     H152950   4.683   1.589   0.589  1.1908 -3.2790  0.9567
 8917SOL     H252951   4.765   1.573   0.463  0.2173  1.0197 -0.3117
 8918SOL    OH252952   4.471   6.870   1.167 -0.4386 -0.6957 -0.3792
 8918SOL     H152953   4.485   6.904   1.078  0.7686  0.9459  0.4003
 8918SOL     H252954   4.557   6.839   1.195 -1.0347 -2.1999 -0.1636
 8919SOL    OH252955   4.757   3.690   6.740  1.0410 -0.4750 -0.0468
 8919SOL     H152956   4.810   3.640   6.678 -0.0241  0.3231 -1.6592
 8919SOL     H252957   4.758   3.780   6.705 -0.0448 -0.1220  0.7687
 8920SOL    OH252958   0.820   2.013   2.087 -0.4558  0.4621  0.1514
 8920SOL     H152959   0.859   2.100   2.087 -1.9720  1.1768 -1.2006
 8920SOL     H252960   0.785   2.002   2.175 -0.7616  1.4625  0.1591
 8921SOL    OH252961   6.149   1.397   2.115  0.2561  0.1434 -0.0156
 8921SOL     H152962   6.160   1.309   2.150  1.8269  0.7455  1.0709
 8921SOL     H252963   6.065   1.426   2.148  1.5132  0.5367  2.9929
 8922SOL    OH252964   1.912   2.628   0.368 -0.3124 -0.0653  0.1924
 8922SOL     H152965   2.005   2.616   0.384 -0.7597 -1.5659  1.7181
 8922SOL     H252966   1.899   2.598   0.278  0.8080  0.9360 -0.3171
 8923SOL    OH252967   0.297   5.276   0.724 -0.2817 -0.6318  0.1584
 8923SOL     H152968   0.243   5.319   0.790 -0.8674  1.1489 -1.4357
 8923SOL     H252969   0.383   5.317   0.733 -0.7107  0.5538 -1.0375
 8924SOL    OH252970   3.196   3.618   6.227  0.4014 -0.2887 -0.5120
 8924SOL     H152971   3.290   3.606   6.242 -0.0002 -1.0164  1.6059
 8924SOL     H252972   3.171   3.545   6.170  1.2380  0.2638 -1.5939
 8925SOL    OH252973   2.046   6.371   8.023  0.0288 -0.8151 -0.2108
 8925SOL     H152974   1.974   6.414   7.977  0.3487  0.0348  0.0803
 8925SOL     H252975   2.066   6.294   7.969 -0.7680 -0.7837 -0.5557
 8926SOL    OH252976   4.410   5.724   7.388 -0.1015  0.2732  0.3552
 8926SOL     H152977   4.465   5.746   7.312 -2.5797  0.3284 -1.4713
 8926SOL     H252978   4.456   5.763   7.462  1.3863  1.9000 -1.3551
 8927SOL    OH252979   7.314   0.101   7.300  0.2297  0.3859  0.1967
 8927SOL     H152980   7.285   0.109   7.392 -1.7374 -1.7183 -0.1987
 8927SOL     H252981   7.249   0.151   7.251  0.8111  0.8044 -0.1535
 8928SOL    OH252982   4.527   2.238   1.899 -0.4257 -0.1173  0.6610
 8928SOL     H152983   4.496   2.320   1.937 -0.9787 -0.2555  0.5008
 8928SOL     H252984   4.531   2.177   1.973 -1.1172 -0.2738  0.5663
 8929SOL    OH252985   0.687   7.324   1.573 -0.3419 -0.0325  0.4315
 8929SOL     H152986   0.642   7.305   1.491 -0.8715 -0.8489  0.8997
 8929SOL     H252987   0.690   7.239   1.619  0.8164  0.2114  0.8261
 8930SOL    OH252988   3.569   2.380   7.807 -0.7257  0.1421 -0.4428
 8930SOL     H152989   3.532   2.404   7.892 -0.7726  0.2426 -0.4906
 8930SOL     H252990   3.565   2.461   7.756  0.6697  0.4560 -0.0587
 8931SOL    OH252991   4.454   4.554   2.125 -0.3249 -0.3696 -0.2425
 8931SOL     H152992   4.379   4.612   2.116  0.5522  0.8578  0.2597
 8931SOL     H252993   4.469   4.546   2.219 -0.6879 -1.7619 -0.2802
 8932SOL    OH252994   2.184   1.565   7.701 -0.7542  0.2021 -0.2055
 8932SOL     H152995   2.187   1.469   7.707  0.5870  0.3084  0.8780
 8932SOL     H252996   2.266   1.589   7.659 -2.1654  0.7354 -2.7989
 8933SOL    OH252997   1.139   2.469   7.890  0.2143 -0.3097 -0.3972
 8933SOL     H152998   1.183   2.486   7.973 -0.8701  1.9303 -0.2463
 8933SOL     H252999   1.168   2.540   7.832 -2.3713  0.6497 -0.5932
 8934SOL    OH253000   3.603   7.789   6.279  0.4782 -0.1679  0.0255
 8934SOL     H153001   3.570   7.879   6.285  0.0340 -0.2705 -0.8119
 8934SOL     H253002   3.593   7.754   6.367 -1.0273  0.0259 -0.0550
 8935SOL    OH253003   2.554   0.886   6.102 -0.0582  0.5573  0.1459
 8935SOL     H153004   2.578   0.827   6.031  2.9488  0.6911  0.9748
 8935SOL     H253005   2.595   0.849   6.180 -1.1594  1.7851  1.3484
 8936SOL    OH253006   4.724   4.715   0.075 -0.2435 -0.0398  0.1148
 8936SOL     H153007   4.649   4.766   0.106 -0.5021  0.3478 -1.1372
 8936SOL     H253008   4.708   4.703  -0.018  0.4132 -1.4090  0.1721
 8937SOL    OH253009   3.115   5.896   8.101 -0.0872 -0.3187  0.6685
 8937SOL     H153010   3.176   5.884   8.173  0.9923  0.0300 -0.1652
 8937SOL     H253011   3.147   5.975   8.057 -0.8876 -0.3835 -0.0246
 8938SOL    OH253012   2.954   5.877   1.307 -0.3884 -0.3328 -0.0672
 8938SOL     H153013   3.001   5.802   1.271 -0.5276 -0.0437 -0.8473
 8938SOL     H253014   2.998   5.954   1.270 -2.4140 -0.0634 -2.0595
 8939SOL    OH253015   3.976   4.092   6.379 -0.0051  0.1571  0.7120
 8939SOL     H153016   3.925   4.047   6.312 -2.0053  0.0968  2.2219
 8939SOL     H253017   3.953   4.184   6.370  0.5921  0.2957  0.5778
 8940SOL    OH253018   4.900   0.042   0.185 -0.3389  0.4126 -0.0453
 8940SOL     H153019   4.894  -0.050   0.159  0.2593  0.2556  0.3488
 8940SOL     H253020   4.982   0.073   0.145 -0.3678  0.6816  0.1023
 8941SOL    OH253021   2.553   6.156   7.131  0.7331 -0.2919  0.1593
 8941SOL     H153022   2.531   6.213   7.057  0.0261 -0.5127  0.1977
 8941SOL     H253023   2.648   6.159   7.135  0.7600  0.0300 -0.5208
 8942SOL    OH253024   6.725   7.228   0.159  0.0317 -0.2668  0.3282
 8942SOL     H153025   6.779   7.275   0.222 -0.0028 -0.2694  0.3596
 8942SOL     H253026   6.667   7.174   0.213 -0.9003  0.7219  0.3194
 8943SOL    OH253027   0.240   4.773   6.812 -0.0915  0.5275  0.7147
 8943SOL     H153028   0.169   4.742   6.756  0.5057 -0.0409  0.2605
 8943SOL     H253029   0.198   4.792   6.896 -0.6406 -0.5881  0.7049
 8944SOL    OH253030   7.156   2.081   7.783 -0.2749 -0.3942  0.4226
 8944SOL     H153031   7.162   2.157   7.841  1.3703 -0.4719  0.3609
 8944SOL     H253032   7.063   2.078   7.758 -0.2901  1.8473  0.0820
 8945SOL    OH253033   0.737   2.988   7.345  0.1772 -0.4498  0.6919
 8945SOL     H153034   0.755   2.922   7.412 -1.0034 -0.0044  1.4601
 8945SOL     H253035   0.700   3.062   7.392 -0.0313  0.1436 -0.3691
 8946SOL    OH253036   3.052   2.139   7.956  0.3965 -0.0894  0.3148
 8946SOL     H153037   2.982   2.136   7.892 -0.0050  1.5022  0.6393
 8946SOL     H253038   3.085   2.050   7.961 -1.0559 -0.6757 -0.4454
 8947SOL    OH253039   2.361   6.148   8.203  0.1450  0.1685 -0.2924
 8947SOL     H153040   2.390   6.069   8.249 -0.4880 -0.0437 -0.2536
 8947SOL     H253041   2.441   6.198   8.189  0.2916  0.4743  1.5045
 8948SOL    OH253042   0.070   0.145   1.410  0.0514  0.4078  0.2465
 8948SOL     H153043  -0.012   0.192   1.395  0.1890  0.9636  1.2679
 8948SOL     H253044   0.066   0.117   1.502  0.5708 -0.4130  0.0313
 8949SOL    OH253045   1.563   0.497   7.333 -0.3376  0.2109  0.2312
 8949SOL     H153046   1.540   0.561   7.401 -3.0950 -0.7496  0.2512
 8949SOL     H253047   1.545   0.542   7.251  1.2427  0.7207  0.1454
 8950SOL    OH253048   6.957   1.916   7.058 -0.1093  0.2815 -0.5259
 8950SOL     H153049   6.979   1.835   7.103  1.7021  2.6143  3.0518
 8950SOL     H253050   7.030   1.932   6.998  1.6184  1.2702  1.7516
 8951SOL    OH253051   6.724   6.595   6.320  0.0380 -0.1288 -0.3665
 8951SOL     H153052   6.762   6.677   6.352  1.6667 -0.6887 -0.7878
 8951SOL     H253053   6.717   6.607   6.225 -2.5800  0.6474 -0.1066
 8952SOL    OH253054   7.659   3.088   7.899 -0.5676  0.7379 -0.0781
 8952SOL     H153055   7.574   3.045   7.897  0.2704 -0.8826 -2.4055
 8952SOL     H253056   7.666   3.123   7.988 -2.5842 -1.2858  0.9238
 8953SOL    OH253057   0.035   5.259   7.301 -0.7814  0.1864  0.4735
 8953SOL     H153058   0.048   5.229   7.391  0.1114 -0.6697  0.0598
 8953SOL     H253059  -0.031   5.200   7.265  2.5437 -2.7896 -1.0360
 8954SOL    OH253060   5.045   6.595   0.381  0.2631  0.2818 -0.3743
 8954SOL     H153061   5.132   6.620   0.414 -0.1528 -1.2544  1.9811
 8954SOL     H253062   5.028   6.509   0.419 -2.2756  0.5317 -0.8549
 8955SOL    OH253063   6.845   1.870   0.469 -0.7116 -0.7281 -0.1183
 8955SOL     H153064   6.919   1.931   0.466  0.4478 -2.1559 -1.1584
 8955SOL     H253065   6.885   1.783   0.471 -2.3361 -1.4831  1.6552
 8956SOL    OH253066   1.833   6.773   2.429 -0.4938  0.1040  0.4686
 8956SOL     H153067   1.878   6.823   2.361 -0.6986  0.9111  0.9328
 8956SOL     H253068   1.814   6.689   2.387  1.8628 -0.4380  0.4335
 8957SOL    OH253069   7.076   6.690   6.576 -0.1967 -0.4293 -0.1269
 8957SOL     H153070   7.081   6.598   6.602  0.8229 -0.0666  1.0479
 8957SOL     H253071   7.005   6.726   6.629  0.4696 -0.1772  0.6014
 8958SOL    OH253072   1.595   0.219   1.014  0.2149 -0.2709  0.1128
 8958SOL     H153073   1.642   0.221   0.930  1.9386 -0.7749  1.0495
 8958SOL     H253074   1.653   0.265   1.074 -1.0857  0.2066  1.0075
 8959SOL    OH253075   5.398   4.365   0.852 -0.8006 -0.9224  0.4159
 8959SOL     H153076   5.449   4.343   0.930  0.5666  2.1048  0.4439
 8959SOL     H253077   5.443   4.320   0.780  1.1257  0.5651  0.6543
 8960SOL    OH253078   4.842   4.033   7.276 -0.1091  0.4826  0.1521
 8960SOL     H153079   4.895   3.954   7.278  0.3315  0.7896  0.6529
 8960SOL     H253080   4.771   4.015   7.337 -0.3322  0.2558 -0.1662
 8961SOL    OH253081   3.551   2.004   6.174 -0.0399  0.0718  0.1849
 8961SOL     H153082   3.463   1.996   6.139 -0.1257  1.1826  0.1403
 8961SOL     H253083   3.582   2.089   6.142  0.7215  0.0705  0.9111
 8962SOL    OH253084   1.998   1.464   7.421  0.1091  0.1170 -0.0796
 8962SOL     H153085   1.928   1.427   7.476 -0.0664 -0.1423 -0.4751
 8962SOL     H253086   1.976   1.557   7.414 -0.6673 -0.1327 -0.9152
 8963SOL    OH253087   7.628   3.729   7.374 -0.2175  0.1454  1.0095
 8963SOL     H153088   7.573   3.650   7.375 -0.1559  0.0782 -0.2463
 8963SOL     H253089   7.647   3.744   7.282  3.3737 -0.8522  1.4927
 8964SOL    OH253090   7.094   0.053   1.774  0.2718  0.2127  0.0166
 8964SOL     H153091   7.144   0.050   1.692 -0.1890 -1.5432 -0.2373
 8964SOL     H253092   7.047  -0.031   1.776  0.9080 -0.1220  2.4648
 8965SOL    OH253093   3.892   2.514   1.433 -0.2266 -0.1501 -0.1016
 8965SOL     H153094   3.841   2.595   1.423 -1.3706 -1.1242 -2.6572
 8965SOL     H253095   3.957   2.519   1.363 -0.2470 -1.3829 -0.2143
 8966SOL    OH253096   2.565   3.993   5.932  0.5881 -0.1076 -0.2781
 8966SOL     H153097   2.478   4.026   5.908  0.3860 -0.6261 -0.2584
 8966SOL     H253098   2.625   4.060   5.901  0.1465  0.4795  0.1342
 8967SOL    OH253099   7.448   3.324   7.081  0.0890 -0.6364  0.2387
 8967SOL     H153100   7.445   3.250   7.019  1.1073 -0.7109  0.2752
 8967SOL     H253101   7.495   3.393   7.034 -0.2669 -0.2437  0.4580
 8968SOL    OH253102   6.172   1.212   1.460 -0.9567 -0.3548  0.6049
 8968SOL     H153103   6.259   1.205   1.499 -0.4004 -1.2879 -0.7419
 8968SOL     H253104   6.117   1.154   1.512 -0.5843 -0.3516  0.9994
 8969SOL    OH253105   2.461   5.622   7.629  0.0916  0.0650  0.6514
 8969SOL     H153106   2.552   5.602   7.609 -0.0187 -0.9235  1.0824
 8969SOL     H253107   2.466   5.695   7.691  0.6002 -0.1853  0.9109
 8970SOL    OH253108   2.080   6.143   7.899 -0.1159  0.6006  0.2568
 8970SOL     H153109   2.092   6.150   7.805 -0.0631 -1.1306  0.1101
 8970SOL     H253110   2.118   6.057   7.922 -2.3074 -0.0888  1.4637
 8971SOL    OH253111   7.941   6.661   2.051  0.4251  0.0111  0.2995
 8971SOL     H153112   7.908   6.745   2.019  0.0313 -0.0970  0.4231
 8971SOL     H253113   7.896   6.647   2.134  1.2106  0.1360  0.7515
 8972SOL    OH253114   0.183   1.068   7.576 -0.1970 -0.2116  0.1323
 8972SOL     H153115   0.204   1.148   7.526 -0.8754  0.1795  0.4717
 8972SOL     H253116   0.151   1.007   7.510  0.8459 -0.4013 -0.2142
 8973SOL    OH253117   3.738   3.393   6.462  0.5652  0.4954  0.7044
 8973SOL     H153118   3.646   3.375   6.479  0.2359 -1.9051 -3.1984
 8973SOL     H253119   3.738   3.450   6.385  2.3658 -0.8377 -0.3117
 8974SOL    OH253120   0.919   0.433   7.699  0.9342 -0.1008 -0.1083
 8974SOL     H153121   0.894   0.342   7.719 -0.1612 -0.3432 -2.4986
 8974SOL     H253122   0.968   0.461   7.777  0.5436 -2.4429  1.0397
 8975SOL    OH253123   0.511   4.383   7.182  0.3431  0.2715 -0.3166
 8975SOL     H153124   0.557   4.303   7.157  0.7919  0.6961 -0.8390
 8975SOL     H253125   0.427   4.351   7.217  1.6090 -0.5909  2.0599
 8976SOL    OH253126   4.519   4.651   7.789  0.4362  0.2863 -0.7311
 8976SOL     H153127   4.538   4.738   7.825 -1.1478  0.7033 -0.8362
 8976SOL     H253128   4.424   4.653   7.772  0.0616 -2.0699  0.8503
 8977SOL    OH253129   0.473   0.358   7.290  1.0209 -0.0262  0.1341
 8977SOL     H153130   0.418   0.372   7.366  1.5465 -0.3929  0.5881
 8977SOL     H253131   0.535   0.290   7.317  1.4562  0.1138 -0.4877
 8978SOL    OH253132   0.906   0.699   2.155 -0.5761 -0.6484  0.5808
 8978SOL     H153133   0.931   0.609   2.133  0.5611 -0.6340  1.7821
 8978SOL     H253134   0.938   0.712   2.244 -0.1932  1.1596  0.1971
 8979SOL    OH253135   6.625   3.187   1.433 -0.0239  0.9535 -0.2372
 8979SOL     H153136   6.652   3.277   1.451  1.2876  0.4272  0.4622
 8979SOL     H253137   6.530   3.192   1.423 -0.0650  2.2718  0.7362
 8980SOL    OH253138   2.623   4.042   7.992 -0.4496  0.0403 -0.3234
 8980SOL     H153139   2.618   4.093   7.911 -0.2280 -1.3332 -1.2211
 8980SOL     H253140   2.548   3.983   7.989 -1.9529  1.7717  1.7569
 8981SOL    OH253141   4.434   5.489   1.803  0.0109  0.3050  0.1376
 8981SOL     H153142   4.486   5.437   1.741  0.1066 -0.3612  0.7706
 8981SOL     H253143   4.426   5.575   1.761  0.4296 -0.0137 -0.6084
 8982SOL    OH253144   0.688   4.699   7.865 -0.0343  0.1025  0.7657
 8982SOL     H153145   0.643   4.722   7.946 -0.6274 -1.2851  0.8452
 8982SOL     H253146   0.672   4.605   7.854  0.4226  0.1764 -0.7137
 8983SOL    OH253147   2.183   5.058   5.426 -0.0953 -0.5941  0.4395
 8983SOL     H153148   2.201   4.964   5.437  0.4547 -0.5554 -0.0864
 8983SOL     H253149   2.267   5.095   5.400  0.1272  0.3543  2.4361
 8984SOL    OH253150   7.513   7.065   0.886  0.0268 -0.2289  0.1996
 8984SOL     H153151   7.509   7.138   0.824  0.6298 -0.6582 -0.3436
 8984SOL     H253152   7.529   6.988   0.832 -0.2164 -0.7178  0.8128
 8985SOL    OH253153   5.233   3.036   1.230  0.2354  0.0989  0.0226
 8985SOL     H153154   5.277   3.001   1.152  0.9347  0.3537  0.2987
 8985SOL     H253155   5.158   2.978   1.243  0.8200 -0.7067 -0.1075
 8986SOL    OH253156   0.502   5.736   7.220  0.3662 -0.2161 -0.2299
 8986SOL     H153157   0.523   5.642   7.215 -0.1068 -0.3093 -0.5521
 8986SOL     H253158   0.406   5.738   7.221  0.3712  0.2132  0.8316
 8987SOL    OH253159   0.777   5.017   1.096  0.0138 -0.8460  0.7998
 8987SOL     H153160   0.816   4.930   1.090  1.1808 -0.4027  1.7361
 8987SOL     H253161   0.851   5.077   1.086 -0.6194  0.0296  1.3481
 8988SOL    OH253162   7.199   7.587   0.651 -0.3611 -0.3111 -0.2120
 8988SOL     H153163   7.210   7.598   0.746  0.8522  0.6136 -0.4626
 8988SOL     H253164   7.243   7.662   0.612  0.7078 -1.6367 -1.6013
 8989SOL    OH253165   0.230   7.427   7.922 -0.2910  0.1920 -0.3046
 8989SOL     H153166   0.299   7.493   7.908  1.6265 -2.0348 -1.6528
 8989SOL     H253167   0.221   7.423   8.017  2.0966 -0.0927 -0.0585
 8990SOL    OH253168   2.606   3.798   1.070 -0.3910  0.1781 -0.0673
 8990SOL     H153169   2.663   3.790   1.146 -0.8720 -0.3154  0.2482
 8990SOL     H253170   2.632   3.727   1.012 -1.0024 -0.3623  0.3000
 8991SOL    OH253171   7.497   4.394   6.797  0.0761  0.0839  0.9817
 8991SOL     H153172   7.489   4.301   6.818 -0.7090  0.4405  2.3081
 8991SOL     H253173   7.571   4.424   6.850 -0.3132  0.4389  1.3231
 8992SOL    OH253174   5.237   5.255   7.313  0.2140 -0.4562 -0.0774
 8992SOL     H153175   5.283   5.304   7.245 -0.4118  0.6798  0.3205
 8992SOL     H253176   5.273   5.166   7.306  0.9243 -0.0916 -1.1775
 8993SOL    OH253177   0.077   5.914   0.284 -0.1173  0.3632  0.0655
 8993SOL     H153178   0.061   5.901   0.377 -2.7610 -3.3895 -0.8108
 8993SOL     H253179   0.169   5.891   0.272  0.5829  2.1093  1.9084
 8994SOL    OH253180   6.855   5.479   0.702 -0.4218 -0.0440 -0.3806
 8994SOL     H153181   6.789   5.545   0.719  1.2254  1.3322  0.8714
 8994SOL     H253182   6.926   5.526   0.658 -0.8867 -1.8125 -3.1853
 8995SOL    OH253183   6.883   2.535   0.582 -0.1580  0.1769 -0.1965
 8995SOL     H153184   6.787   2.526   0.584 -0.1031 -0.2651  0.6756
 8995SOL     H253185   6.897   2.624   0.550 -0.8516  0.0426 -0.8946
 8996SOL    OH253186   0.211   5.045   7.194 -0.2445  0.2703  0.0027
 8996SOL     H153187   0.307   5.045   7.194 -0.2280 -0.1187  1.6797
 8996SOL     H253188   0.187   5.138   7.193  0.1808  0.4056  1.3242
 8997SOL    OH253189   1.098   0.358   0.572  0.0426 -0.7217  0.1226
 8997SOL     H153190   1.068   0.378   0.660 -0.0653  0.0065 -0.0828
 8997SOL     H253191   1.185   0.320   0.584 -0.0259 -0.7407  0.5493
 8998SOL    OH253192   4.363   3.765   7.308  0.2499  0.0468  0.1925
 8998SOL     H153193   4.304   3.805   7.245 -0.0717  0.3225  0.6658
 8998SOL     H253194   4.322   3.681   7.330 -1.2963  1.3418  2.4441
 8999SOL    OH253195   0.639   6.763   7.740 -0.3285 -0.4017 -0.0053
 8999SOL     H153196   0.695   6.825   7.785 -1.1273 -0.3958  0.9803
 8999SOL     H253197   0.558   6.811   7.721  1.1742  0.6143 -4.3451
 9000SOL    OH253198   2.984   2.319   7.588  0.4809 -0.5288  0.0022
 9000SOL     H153199   3.071   2.322   7.548  0.7826 -1.4442  0.5750
 9000SOL     H253200   2.984   2.239   7.640 -0.4510 -0.1557  0.5980
 9001SOL    OH253201   7.173   5.196   7.933  0.2107 -0.5311  0.3794
 9001SOL     H153202   7.162   5.290   7.919  1.3751 -0.3372  0.6958
 9001SOL     H253203   7.157   5.157   7.848 -2.2347 -0.2345  0.6696
 9002SOL    OH253204   5.099   6.872   0.691  0.0613  0.2762  0.1891
 9002SOL     H153205   5.128   6.928   0.618 -1.7055  0.0058 -0.7456
 9002SOL     H253206   5.016   6.911   0.719 -0.1126 -0.6190  0.9334
 9003SOL    OH253207   7.465   1.963   7.355  0.2219  1.5149  0.3579
 9003SOL     H153208   7.431   1.876   7.375 -0.0101  1.5413  0.0775
 9003SOL     H253209   7.555   1.961   7.387  0.9381  0.4286 -1.6573
 9004SOL    OH253210   7.276   3.923   1.211 -0.0747 -0.6098  0.8469
 9004SOL     H153211   7.354   3.880   1.247 -0.0501 -0.0497  1.4798
 9004SOL     H253212   7.206   3.902   1.274 -0.5639 -1.5635  0.0005
 9005SOL    OH253213   4.921   3.783   7.280 -0.4706 -0.4971 -0.6320
 9005SOL     H153214   4.885   3.727   7.349 -0.1537 -1.7402 -1.4693
 9005SOL     H253215   4.942   3.723   7.209  0.5072  0.6054 -1.2845
 9006SOL    OH253216   3.126   2.506   0.388 -1.0274 -0.3329  0.3689
 9006SOL     H153217   3.092   2.574   0.447 -0.6589  0.4496 -0.3051
 9006SOL     H253218   3.174   2.447   0.445 -2.1339 -0.5492  1.1039
 9007SOL    OH253219   3.720   1.658   1.119  0.4317  0.2408 -0.2185
 9007SOL     H153220   3.775   1.718   1.170  2.7755 -1.9040 -0.1411
 9007SOL     H253221   3.659   1.621   1.183  0.6305  0.6318  0.2035
 9008SOL    OH253222   5.256   3.719   6.389 -0.3894  0.2438 -0.0826
 9008SOL     H153223   5.225   3.636   6.426  0.4005  0.3091  0.7365
 9008SOL     H253224   5.189   3.782   6.415 -0.8673 -0.0876 -0.4954
 9009SOL    OH253225   7.282   4.962   6.698 -0.1069 -0.1799 -0.3745
 9009SOL     H153226   7.309   5.007   6.777 -0.8437 -2.3074  1.1350
 9009SOL     H253227   7.246   4.878   6.728  1.0823 -1.7509 -3.0404
 9010SOL    OH253228   2.295   1.903   8.020  0.2147 -0.0600  0.2716
 9010SOL     H153229   2.360   1.971   8.032  0.0910  0.4973 -2.0759
 9010SOL     H253230   2.345   1.825   7.996  0.1424 -0.0550  0.1024
 9011SOL    OH253231   1.896   7.665   1.640 -0.4685 -0.0579  0.9995
 9011SOL     H153232   1.903   7.721   1.718 -2.4651  0.8374  0.5783
 9011SOL     H253233   1.850   7.719   1.576 -1.4546 -1.7912  0.2002
 9012SOL    OH253234   5.753   7.377   7.405  0.2728 -0.2409  0.1370
 9012SOL     H153235   5.741   7.313   7.335 -0.2906  0.3735 -0.3346
 9012SOL     H253236   5.845   7.402   7.398  0.2385 -0.2325 -0.3422
 9013SOL    OH253237   0.737   6.263   0.929 -0.4454 -0.2249  0.2465
 9013SOL     H153238   0.651   6.272   0.970 -1.2746  0.5065 -1.6255
 9013SOL     H253239   0.740   6.173   0.897 -0.6569 -0.1370 -0.0190
 9014SOL    OH253240   1.924   3.682   1.729  0.0515  0.6200  0.3649
 9014SOL     H153241   1.853   3.681   1.793  0.9885 -0.9721  1.4049
 9014SOL     H253242   1.899   3.616   1.664  0.2993  0.4951  0.3986
 9015SOL    OH253243   5.521   0.506   1.237  0.2410  0.1617  0.0873
 9015SOL     H153244   5.527   0.492   1.332 -3.0820 -1.5192  0.1202
 9015SOL     H253245   5.566   0.431   1.199  1.3130  0.6808  0.3139
 9016SOL    OH253246   4.019   0.432   7.901 -0.4164  0.6818 -0.0978
 9016SOL     H153247   4.071   0.466   7.974  0.8538  0.4478 -0.8864
 9016SOL     H253248   4.036   0.338   7.901  0.7227  0.8822 -1.5833
 9017SOL    OH253249   4.188   5.632   1.615  0.3648 -0.2296 -0.9277
 9017SOL     H153250   4.148   5.578   1.684  0.8397  0.2160 -0.2994
 9017SOL     H253251   4.253   5.575   1.575  1.2675  0.0583  0.1181
 9018SOL    OH253252   7.377   7.376   1.698  0.0690 -0.0547  0.0492
 9018SOL     H153253   7.283   7.358   1.704 -0.0024  0.1727 -0.3666
 9018SOL     H253254   7.412   7.350   1.783 -0.3654 -0.1800  0.1896
 9019SOL    OH253255   1.914   1.176   1.653  0.0069 -0.2116 -0.5721
 9019SOL     H153256   1.982   1.140   1.596  0.7321 -0.3945  0.3836
 9019SOL     H253257   1.929   1.134   1.738 -0.5585  0.6388 -0.0387
 9020SOL    OH253258   6.337   1.553   5.874  0.0484 -0.2115  0.4615
 9020SOL     H153259   6.431   1.553   5.891 -0.0555  1.0999  1.0954
 9020SOL     H253260   6.303   1.628   5.924 -1.1974 -0.1438 -0.4520
 9021SOL    OH253261   5.228   7.919   0.345  0.1359 -0.0584  0.5673
 9021SOL     H153262   5.219   7.829   0.314 -0.2175 -0.0005  0.5063
 9021SOL     H253263   5.139   7.952   0.353  0.2203 -0.0572  1.5937
 9022SOL    OH253264   2.352   2.080   7.674 -0.1574  0.0081 -0.1494
 9022SOL     H153265   2.365   2.037   7.759 -0.3083  0.7116  0.2297
 9022SOL     H253266   2.281   2.142   7.689  0.1251  0.4581 -0.6739
 9023SOL    OH253267   0.973   0.055   7.171  0.0165 -0.2077  0.6573
 9023SOL     H153268   0.902   0.080   7.112  0.1038 -0.3969  0.4716
 9023SOL     H253269   1.044   0.115   7.148  0.1405 -0.4586  0.3861
 9024SOL    OH253270   4.735   2.114   1.750 -0.0198  0.2699 -0.3700
 9024SOL     H153271   4.648   2.148   1.768  0.0751  0.9208 -1.0720
 9024SOL     H253272   4.786   2.192   1.725  0.6799 -0.1443 -0.2458
 9025SOL    OH253273   1.196   5.618   0.548 -0.5753 -0.0475  0.0737
 9025SOL     H153274   1.257   5.549   0.572  0.5226  1.1950  0.8643
 9025SOL     H253275   1.117   5.600   0.600 -0.3723 -0.8140  0.1151
 9026SOL    OH253276   0.146   7.232   0.533  0.0299  0.4687  0.1491
 9026SOL     H153277   0.221   7.172   0.530 -0.1214  0.3659 -2.8183
 9026SOL     H253278   0.102   7.210   0.615 -0.1221 -3.6223 -0.8958
 9027SOL    OH253279   1.151   0.397   1.197  0.2325 -0.3270  0.5011
 9027SOL     H153280   1.230   0.342   1.198 -0.8152 -1.9211 -1.0591
 9027SOL     H253281   1.159   0.448   1.116 -1.7591 -2.7241 -1.2882
 9028SOL    OH253282   5.238   3.316   1.258 -0.5486  0.1742  0.0746
 9028SOL     H153283   5.226   3.234   1.210  1.2339  1.4334 -2.6611
 9028SOL     H253284   5.312   3.299   1.317 -0.9554 -0.5539  0.3750
 9029SOL    OH253285   6.828   6.636   0.241 -0.3721 -0.4547  0.2875
 9029SOL     H153286   6.854   6.619   0.151 -4.6849 -0.4386 -1.0611
 9029SOL     H253287   6.760   6.704   0.235 -1.9848 -1.6749  3.3316
 9030SOL    OH253288   1.188   7.171   0.292  0.3140 -0.3233  0.0239
 9030SOL     H153289   1.196   7.252   0.243  2.8073  0.3766  1.4790
 9030SOL     H253290   1.142   7.111   0.233  2.1122  0.8589 -2.6583
 9031SOL    OH253291   4.435   7.504   6.503 -0.1189  0.6248 -0.2619
 9031SOL     H153292   4.364   7.562   6.531  0.2888  0.8585  0.2887
 9031SOL     H253293   4.514   7.546   6.536  0.0637 -1.1556  1.6614
 9032SOL    OH253294   6.694   0.316   2.241 -0.4306 -0.6715 -0.4519
 9032SOL     H153295   6.760   0.322   2.172 -0.0561 -1.8049 -0.1948
 9032SOL     H253296   6.646   0.236   2.221 -0.0234 -1.2565  0.8627
 9033SOL    OH253297   5.642   6.977   0.073  0.1781 -0.2559 -0.4087
 9033SOL     H153298   5.631   6.975  -0.022  1.4998 -1.4190 -0.5539
 9033SOL     H253299   5.715   6.917   0.090 -0.4829 -0.5811  1.3951
 9034SOL    OH253300   6.021   7.090   5.739 -0.4453 -0.2825 -0.0888
 9034SOL     H153301   6.064   7.054   5.661  0.2198 -0.4896  0.3710
 9034SOL     H253302   5.995   7.013   5.790 -2.1109 -0.1774 -0.7577
 9035SOL    OH253303   6.964   2.005   1.261  0.2877 -0.0803 -0.9562
 9035SOL     H153304   6.933   2.092   1.238  1.7767  0.4479 -1.0117
 9035SOL     H253305   6.909   1.979   1.335  0.5109  1.3370 -0.2783
 9036SOL    OH253306   3.804   3.040   7.245 -0.3353  0.4126  0.1034
 9036SOL     H153307   3.716   3.036   7.282 -1.1050  0.5159 -1.6777
 9036SOL     H253308   3.814   3.131   7.216  0.7876  0.6898  1.2876
 9037SOL    OH253309   7.692   0.225   6.640 -0.6306 -0.0421  0.0274
 9037SOL     H153310   7.698   0.284   6.715  0.8023  0.0082 -0.1187
 9037SOL     H253311   7.741   0.148   6.667 -1.7012 -0.7951 -0.1468
 9038SOL    OH253312   5.737   4.724   0.085  0.3127  0.0983  0.1534
 9038SOL     H153313   5.823   4.681   0.094  0.0070 -0.6310 -0.3117
 9038SOL     H253314   5.710   4.702  -0.004  0.0377  1.0664  0.0011
 9039SOL    OH253315   1.898   6.880   8.184 -0.0648 -0.0489 -0.8152
 9039SOL     H153316   1.866   6.904   8.271 -0.1529 -0.6064 -0.6977
 9039SOL     H253317   1.963   6.812   8.200 -0.0052 -0.0777 -1.1813
 9040SOL    OH253318   5.469   2.033   2.139 -0.2646 -0.0868  0.0384
 9040SOL     H153319   5.423   1.991   2.066 -0.9496  0.5615  0.0872
 9040SOL     H253320   5.445   1.982   2.216 -0.5658 -0.0038 -0.0004
 9041SOL    OH253321   3.054   2.939   1.332  0.6478  0.0751  0.1096
 9041SOL     H153322   3.086   2.956   1.421  1.0771 -0.4351  0.0548
 9041SOL     H253323   3.110   2.992   1.275  0.2461  0.5543  0.1556
 9042SOL    OH253324   0.555   0.987   1.602  0.0898 -0.0404  0.0083
 9042SOL     H153325   0.516   1.055   1.658  0.5444  1.0490 -0.9787
 9042SOL     H253326   0.645   1.015   1.590 -0.0332 -0.1971 -1.3680
 9043SOL    OH253327   5.069   5.045   7.067 -0.4413 -0.3260 -0.0758
 9043SOL     H153328   5.137   4.999   7.116 -0.5211  0.0898  0.4287
 9043SOL     H253329   4.989   5.029   7.116 -0.4199  0.6024  0.2764
 9044SOL    OH253330   4.382   2.281   0.524  0.1841 -0.2852 -0.8515
 9044SOL     H153331   4.407   2.198   0.483  0.9134 -0.4565 -0.0888
 9044SOL     H253332   4.424   2.348   0.471  0.2981 -0.4521 -0.9736
 9045SOL    OH253333   3.780   6.191   1.634 -0.0300 -0.1361 -0.0212
 9045SOL     H153334   3.835   6.221   1.562 -0.4154  1.2371  0.2583
 9045SOL     H253335   3.709   6.254   1.639 -1.1624 -1.4062  0.2002
 9046SOL    OH253336   4.185   2.638   0.306  0.4578  0.6739  0.2525
 9046SOL     H153337   4.163   2.548   0.330 -0.3959  1.1857  1.4714
 9046SOL     H253338   4.277   2.634   0.279  0.3610 -0.5962  0.0975
 9047SOL    OH253339   4.845   6.195   1.084 -0.3754 -0.7949 -0.2749
 9047SOL     H153340   4.816   6.106   1.062  1.0392 -1.8419  1.8896
 9047SOL     H253341   4.843   6.198   1.180  1.6537  0.7946 -0.2503
 9048SOL    OH253342   2.875   6.956   1.212 -0.2383 -0.1165  0.9749
 9048SOL     H153343   2.892   7.045   1.182 -1.0565  0.2544  1.6045
 9048SOL     H253344   2.801   6.926   1.159  1.2580 -1.1379 -0.6033
 9049SOL    OH253345   0.516   3.091   7.547 -0.1994 -0.2613 -0.0622
 9049SOL     H153346   0.473   3.170   7.581 -0.5653 -0.3257 -0.3695
 9049SOL     H253347   0.603   3.121   7.521 -0.9877  0.4903 -1.9995
 9050SOL    OH253348   3.062   5.915   6.775 -0.3019  0.5460 -0.3132
 9050SOL     H153349   3.139   5.971   6.776  0.2200 -0.1598 -0.3111
 9050SOL     H253350   2.995   5.965   6.821 -0.1849  1.6348 -1.3115
 9051SOL    OH253351   1.649   4.599   1.907  0.5129 -0.8368  0.0677
 9051SOL     H153352   1.648   4.655   1.830 -0.6881 -1.5233 -0.4354
 9051SOL     H253353   1.592   4.644   1.970  0.3692 -0.9769  0.0384
 9052SOL    OH253354   3.256   7.149   6.994 -0.5368 -0.3357 -0.1068
 9052SOL     H153355   3.228   7.083   7.058  0.4911 -0.7750 -0.1008
 9052SOL     H253356   3.181   7.208   6.987 -1.1915 -1.0833  0.4451
 9053SOL    OH253357   7.393   1.321   0.348 -0.1702  0.0185  0.0973
 9053SOL     H153358   7.302   1.339   0.374 -0.1596  0.2530 -0.0208
 9053SOL     H253359   7.385   1.263   0.272 -0.2080 -0.4105  0.4284
 9054SOL    OH253360   0.411   0.184   7.510 -0.1984 -0.0999  0.1379
 9054SOL     H153361   0.316   0.188   7.524 -0.0765 -0.2920  1.0355
 9054SOL     H253362   0.428   0.094   7.484 -0.5947  0.5695 -2.6019
 9055SOL    OH253363   5.993   3.340   6.682  0.3609 -0.0746  0.6338
 9055SOL     H153364   6.041   3.418   6.652  1.5173 -1.1248 -0.3461
 9055SOL     H253365   6.062   3.278   6.705 -0.5526 -1.0554  0.7434
 9056SOL    OH253366   7.021   4.861   1.632  0.6350  0.2041  0.1750
 9056SOL     H153367   7.047   4.924   1.565  3.3263  2.1707  2.9409
 9056SOL     H253368   6.932   4.834   1.607  0.6105  2.7474 -2.7497
 9057SOL    OH253369   1.335   3.927   1.414 -0.1511  0.6521  0.1214
 9057SOL     H153370   1.346   3.866   1.487 -1.0041  1.4488  0.9389
 9057SOL     H253371   1.363   4.012   1.450  0.7546  0.7953 -0.9090
 9058SOL    OH253372   0.374   7.203   6.858  0.0493 -0.3008 -0.3251
 9058SOL     H153373   0.391   7.293   6.830  1.7670 -0.7621 -0.8764
 9058SOL     H253374   0.364   7.154   6.776 -1.7055 -0.4801 -0.0182
 9059SOL    OH253375   4.564   1.980   0.813  0.1772  0.5793  0.4618
 9059SOL     H153376   4.576   1.969   0.719  0.6002  1.5531  0.3914
 9059SOL     H253377   4.578   1.893   0.849 -0.7567  0.0408 -0.4436
 9060SOL    OH253378   0.495   3.850   6.387  0.8402  0.2511 -0.3346
 9060SOL     H153379   0.406   3.815   6.396  0.1456  1.7362 -1.2559
 9060SOL     H253380   0.521   3.872   6.476 -0.0100  0.4984 -0.1427
 9061SOL    OH253381   2.297   4.094   6.949 -0.2492  0.1205 -0.2467
 9061SOL     H153382   2.305   4.189   6.936 -1.1983  0.3668  0.8748
 9061SOL     H253383   2.373   4.070   7.001  1.6747 -0.2774 -3.1427
 9062SOL    OH253384   0.280   1.731   6.533  0.4057  0.4338 -0.2337
 9062SOL     H153385   0.196   1.759   6.496  0.2043 -1.5711 -1.3724
 9062SOL     H253386   0.329   1.813   6.544 -0.0977  1.2762 -3.6012
 9063SOL    OH253387   6.014   7.796   0.835 -0.4216 -0.3942 -0.2726
 9063SOL     H153388   6.106   7.818   0.819  0.5737 -3.2885  1.1931
 9063SOL     H253389   5.979   7.779   0.747  0.4374  0.5653 -0.8264
 9064SOL    OH253390   0.046   6.459   1.591 -0.6013  0.5172  0.0485
 9064SOL     H153391   0.029   6.553   1.588  1.5304  0.9453  0.2490
 9064SOL     H253392   0.073   6.437   1.501 -0.6593  0.1908  0.1088
 9065SOL    OH253393   3.655   6.240   5.987  0.6554 -0.0778 -0.1543
 9065SOL     H153394   3.596   6.296   5.936  1.9963 -0.2255 -1.9144
 9065SOL     H253395   3.687   6.175   5.924  2.4951 -0.1624  0.8406
 9066SOL    OH253396   7.769   5.603   8.151 -0.3799  0.5628  0.3446
 9066SOL     H153397   7.854   5.562   8.140  0.6305  2.5279  0.6806
 9066SOL     H253398   7.728   5.598   8.064 -0.6512 -1.9121  0.5877
 9067SOL    OH253399   6.821   7.404   0.594 -0.3947  0.5801 -0.0289
 9067SOL     H153400   6.860   7.317   0.605  0.7743  1.0873 -0.0869
 9067SOL     H253401   6.774   7.420   0.675 -1.4989 -0.5494 -0.4332
 9068SOL    OH253402   0.908   0.333   0.841  0.2632 -0.0592 -0.3601
 9068SOL     H153403   0.847   0.303   0.908  0.4265  0.5323  0.0539
 9068SOL     H253404   0.910   0.428   0.851  3.6630 -0.2574  1.7692
 9069SOL    OH253405   1.311   6.843   7.228 -0.0518 -0.1532 -0.0262
 9069SOL     H153406   1.391   6.810   7.270 -0.4702 -0.8892  0.1922
 9069SOL     H253407   1.273   6.902   7.292 -0.2688 -0.6614  0.3157
 9070SOL    OH253408   6.292   5.825   0.937  0.7007 -0.5703 -0.3948
 9070SOL     H153409   6.286   5.735   0.970  0.4314 -1.5178 -2.8849
 9070SOL     H253410   6.379   5.829   0.897  0.4935  0.1027 -0.7778
 9071SOL    OH253411   2.406   4.010   1.778 -0.4605 -0.2946  0.1420
 9071SOL     H153412   2.433   3.935   1.831 -0.3628  0.1741  0.7636
 9071SOL     H253413   2.488   4.056   1.759 -0.7115  0.7285  1.4179
 9072SOL    OH253414   3.694   7.839   6.866 -0.3560 -0.2011  0.2264
 9072SOL     H153415   3.729   7.820   6.779 -1.5419 -0.8646 -0.1131
 9072SOL     H253416   3.749   7.788   6.925  0.7605  0.6244 -0.0785
 9073SOL    OH253417   3.185   0.772   8.291 -0.0146 -0.3755 -0.0858
 9073SOL     H153418   3.147   0.692   8.253  1.7853 -1.5135  0.4237
 9073SOL     H253419   3.243   0.805   8.222 -0.3488  0.2096 -0.0891
 9074SOL    OH253420   2.045   5.768   6.733 -0.2154 -0.0592 -0.1676
 9074SOL     H153421   2.024   5.850   6.776 -0.6689  0.1119 -0.7026
 9074SOL     H253422   2.128   5.740   6.772 -1.2663 -0.5817  1.7318
 9075SOL    OH253423   0.541   2.794   8.223 -0.1639  0.4542 -0.3498
 9075SOL     H153424   0.531   2.775   8.130  1.6471  0.4745 -0.5707
 9075SOL     H253425   0.587   2.878   8.225  0.5556  0.0500  0.5520
 9076SOL    OH253426   1.881   0.518   7.145  0.2329  0.4595  0.1494
 9076SOL     H153427   1.941   0.518   7.071  0.6504 -0.9084  0.4692
 9076SOL     H253428   1.908   0.592   7.199  0.0162  1.3738 -0.9843
 9077SOL    OH253429   6.588   2.956   0.280  0.7298  0.0100  0.0962
 9077SOL     H153430   6.592   3.051   0.289  1.2373 -0.0934  1.0259
 9077SOL     H253431   6.599   2.923   0.369  1.4542 -0.9411 -0.3369
 9078SOL    OH253432   3.278   6.623   6.487 -0.1307 -0.1352  0.3801
 9078SOL     H153433   3.366   6.618   6.450  0.1513 -0.0837  1.0277
 9078SOL     H253434   3.289   6.594   6.578 -0.2698  2.4996  1.2861
 9079SOL    OH253435   2.774   1.938   7.245  0.0929 -0.3014  0.7293
 9079SOL     H153436   2.782   1.895   7.330  2.2530 -0.5227  0.4342
 9079SOL     H253437   2.861   1.931   7.206 -0.1711  2.1639 -0.3783
 9080SOL    OH253438   0.188   4.899   1.497 -0.1186 -0.4972  0.2184
 9080SOL     H153439   0.274   4.928   1.465 -0.3208 -1.6448 -1.4141
 9080SOL     H253440   0.154   4.975   1.545  0.8113  0.8038 -1.1119
 9081SOL    OH253441   5.868   0.585   1.663  0.1824 -0.4179  0.0685
 9081SOL     H153442   5.903   0.656   1.609 -1.3952 -0.0042 -0.4412
 9081SOL     H253443   5.787   0.620   1.699 -0.2624 -1.7208  0.3777
 9082SOL    OH253444   7.608   3.170   1.756  0.2553  0.5751 -0.3322
 9082SOL     H153445   7.682   3.211   1.710  0.5311  0.2672 -0.1671
 9082SOL     H253446   7.558   3.127   1.686  0.7232  0.0342 -0.3459
 9083SOL    OH253447   4.463   0.349   1.455 -0.1943 -0.7572  0.0845
 9083SOL     H153448   4.415   0.286   1.401  0.1249 -0.6589 -0.3254
 9083SOL     H253449   4.513   0.295   1.516  2.7929 -1.1165 -2.5359
 9084SOL    OH253450   0.674   4.209   7.502 -0.1757 -0.0640  0.0680
 9084SOL     H153451   0.663   4.183   7.410 -0.5582  1.5917 -0.3657
 9084SOL     H253452   0.600   4.168   7.547 -1.7131  1.6202 -0.8931
 9085SOL    OH253453   4.496   1.898   1.921  0.6022  0.1413 -0.7383
 9085SOL     H153454   4.516   1.961   1.990 -0.7698 -1.5662  1.3024
 9085SOL     H253455   4.579   1.884   1.876  2.0041 -0.0932  1.7867
 9086SOL    OH253456   4.508   5.007   1.628 -0.1037  0.6987 -0.1064
 9086SOL     H153457   4.523   4.939   1.562 -0.4458 -0.4259  0.9388
 9086SOL     H253458   4.424   4.983   1.668  0.0484  1.4117  0.6563
 9087SOL    OH253459   0.415   2.255   1.605 -0.3422  0.2599 -0.0038
 9087SOL     H153460   0.464   2.328   1.567  0.9355 -2.2181 -3.3442
 9087SOL     H253461   0.334   2.251   1.554 -0.0470 -1.1485 -0.3721
 9088SOL    OH253462   4.950   5.243   7.952 -0.0608  0.5653 -0.0711
 9088SOL     H153463   5.017   5.281   8.009 -0.7958  0.1726  1.0678
 9088SOL     H253464   4.930   5.158   7.991  0.0853 -0.1036 -1.4382
 9089SOL    OH253465   0.123   0.852   6.976  0.9187  0.2079 -0.8504
 9089SOL     H153466   0.106   0.941   7.007 -0.3863  0.5870 -2.5767
 9089SOL     H253467   0.203   0.825   7.021 -0.4064  1.0596  2.1185
 9090SOL    OH253468   3.763   6.645   6.995 -0.0932  1.2400  0.3394
 9090SOL     H153469   3.678   6.602   6.993  0.9436 -0.9538  1.8215
 9090SOL     H253470   3.771   6.678   7.085  0.4096  1.9021  0.0614
 9091SOL    OH253471   0.540   1.942   7.162  0.6347 -0.2089  0.8527
 9091SOL     H153472   0.577   1.890   7.234  1.5489  1.4646  1.6207
 9091SOL     H253473   0.486   2.008   7.205  1.4620  1.0231  0.0328
 9092SOL    OH253474   6.153   3.440   0.817 -0.2465 -0.1665 -0.7091
 9092SOL     H153475   6.105   3.360   0.840 -0.2972 -0.4879 -1.8950
 9092SOL     H253476   6.095   3.486   0.757 -0.2478  0.8138  0.0305
 9093SOL    OH253477   4.763   2.995   7.270 -0.0383 -0.4023 -0.3500
 9093SOL     H153478   4.837   2.985   7.330  1.1236 -2.8620 -2.0533
 9093SOL     H253479   4.731   2.905   7.257 -1.4472  0.2972 -1.9276
 9094SOL    OH253480   0.346   0.888   8.271  0.2349 -0.4348  0.1928
 9094SOL     H153481   0.408   0.843   8.214 -0.3700 -0.2053 -0.6554
 9094SOL     H253482   0.326   0.825   8.340  0.2111 -1.0750 -0.3984
 9095SOL    OH253483   1.365   5.701   2.236 -0.5007 -1.0484 -0.8566
 9095SOL     H153484   1.454   5.726   2.211 -0.2807 -1.0024 -0.0256
 9095SOL     H253485   1.371   5.607   2.256  0.0699 -0.3895  2.3311
 9096SOL    OH253486   4.894   4.064   1.792 -0.2857 -0.6282 -0.4400
 9096SOL     H153487   4.811   4.091   1.832  0.1414  1.1226 -0.6777
 9096SOL     H253488   4.891   3.969   1.792 -2.2874 -0.5909 -0.4005
 9097SOL    OH253489   2.131   6.173   0.093 -0.0713  0.4486  0.0146
 9097SOL     H153490   2.205   6.161   0.035  1.0238 -2.2530  1.9117
 9097SOL     H253491   2.114   6.087   0.130 -4.0868  1.0149 -0.2482
 9098SOL    OH253492   4.731   5.698   5.969  0.7670  0.7922  0.0466
 9098SOL     H153493   4.702   5.616   6.010  2.2756  0.6216  0.8363
 9098SOL     H253494   4.816   5.716   6.010  0.8257  2.3281 -0.7122
 9099SOL    OH253495   5.897   4.697   7.265  0.5966 -0.2321 -0.2115
 9099SOL     H153496   5.991   4.679   7.269  0.3415 -2.4860 -2.7928
 9099SOL     H253497   5.865   4.676   7.353  2.0406 -2.6473 -0.2200
 9100SOL    OH253498   5.926   5.153   0.837  0.6556  0.1505 -0.1731
 9100SOL     H153499   5.906   5.174   0.745 -0.4239 -1.8185 -0.4002
 9100SOL     H253500   5.984   5.077   0.832 -1.4567 -1.5597  0.8277
 9101SOL    OH253501   6.386   3.404   7.502 -0.0357 -0.2285  0.2602
 9101SOL     H153502   6.383   3.467   7.574 -0.8828 -0.8882  0.8134
 9101SOL     H253503   6.386   3.319   7.545  0.2871 -0.6194 -0.5056
 9102SOL    OH253504   7.746   4.974   1.462 -0.3714 -0.6055  0.2876
 9102SOL     H153505   7.807   5.018   1.402 -0.5400 -2.2167 -1.1230
 9102SOL     H253506   7.747   4.883   1.433 -1.5824 -1.1272  1.8398
 9103SOL    OH253507   3.969   7.819   8.215 -0.1622  0.5803  0.3276
 9103SOL     H153508   3.912   7.804   8.291 -1.9941  1.1968 -0.8929
 9103SOL     H253509   4.046   7.861   8.252 -0.7598  0.3258  1.9438
 9104SOL    OH253510   6.409   5.929   7.397 -0.0337 -0.2139 -0.1050
 9104SOL     H153511   6.409   5.981   7.477  0.3185  0.7149 -0.6922
 9104SOL     H253512   6.395   5.839   7.426 -0.8998  0.2422  0.9138
 9105SOL    OH253513   3.949   1.610   7.426 -0.1561 -0.5668  0.0204
 9105SOL     H153514   4.036   1.640   7.453  1.1455 -1.3138 -3.1361
 9105SOL     H253515   3.895   1.689   7.432  1.4094  0.6099 -0.5970
 9106SOL    OH253516   3.695   0.213   1.026 -0.2536  0.4568  0.2035
 9106SOL     H153517   3.631   0.235   1.094 -0.1369  0.4365  0.3203
 9106SOL     H253518   3.642   0.182   0.953 -0.2556 -2.4002  1.3516
 9107SOL    OH253519   6.678   2.798   7.351  0.0922  0.2829 -0.1417
 9107SOL     H153520   6.758   2.791   7.404  0.3404  1.9914 -0.2351
 9107SOL     H253521   6.644   2.885   7.372 -0.8587  0.2110 -1.3277
 9108SOL    OH253522   1.215   1.357   7.451  0.3787 -0.2042 -0.4068
 9108SOL     H153523   1.162   1.366   7.531 -0.7721 -1.6973 -0.9854
 9108SOL     H253524   1.296   1.405   7.471  0.5699 -1.4428  2.0766
 9109SOL    OH253525   6.941   7.658   0.524 -0.2654  0.0045 -0.0120
 9109SOL     H153526   7.022   7.625   0.563 -1.5386 -3.6903 -0.3363
 9109SOL     H253527   6.871   7.619   0.577 -1.8953  0.8275 -1.4980
 9110SOL    OH253528   3.604   5.119   1.742 -0.4710  0.4995  0.0012
 9110SOL     H153529   3.645   5.034   1.728 -0.4433  0.4238  0.5515
 9110SOL     H253530   3.640   5.174   1.672 -0.1836  0.1675 -0.1119
 9111SOL    OH253531   7.854   3.473  -0.002 -0.1712 -0.1707 -0.4874
 9111SOL     H153532   7.909   3.402  -0.035 -0.0686 -0.0868 -0.4946
 9111SOL     H253533   7.858   3.465   0.093  1.1465  0.8309 -0.4544
 9112SOL    OH253534   6.221   0.956   5.926 -0.4795  0.0690  0.4492
 9112SOL     H153535   6.167   1.013   5.871 -2.3863 -1.2763  0.8834
 9112SOL     H253536   6.310   0.966   5.890 -1.3418  0.7512 -1.5792
 9113SOL    OH253537   3.270   0.073   0.775  0.0730  0.9322  0.1456
 9113SOL     H153538   3.176   0.057   0.765 -0.6534  3.4994  2.2408
 9113SOL     H253539   3.305  -0.009   0.808 -1.7456  0.4883  1.0318
 9114SOL    OH253540   7.930   5.811   1.196 -0.0348 -0.1633 -0.3913
 9114SOL     H153541   7.915   5.878   1.129  2.7799  0.4111 -0.5327
 9114SOL     H253542   7.881   5.735   1.164 -2.3235  1.4393 -0.8208
 9115SOL    OH253543   7.010   1.685   0.698  0.2281  0.5337 -0.0303
 9115SOL     H153544   7.097   1.678   0.738  0.4125  1.1016 -0.3342
 9115SOL     H253545   6.958   1.618   0.743  0.3734  1.3093  1.3343
 9116SOL    OH253546   5.266   0.305   2.488  0.1813  0.6377 -0.2372
 9116SOL     H153547   5.274   0.389   2.534 -0.6705  1.2033 -1.0968
 9116SOL     H253548   5.189   0.316   2.432  0.0226 -0.7475 -0.3051
 9117SOL    OH253549   6.273   0.276   0.376  0.1054  0.0657 -0.3588
 9117SOL     H153550   6.179   0.288   0.388  0.0499 -0.9535  0.3363
 9117SOL     H253551   6.288   0.289   0.283 -1.2131 -2.8378 -1.0241
 9118SOL    OH253552   5.803   2.509   5.940  0.3733 -0.1630 -0.6393
 9118SOL     H153553   5.792   2.539   6.030  1.3095 -0.1902 -0.5095
 9118SOL     H253554   5.716   2.519   5.900 -0.1900 -0.7419  0.4406
 9119SOL    OH253555   6.792   4.427   0.842 -0.1638  0.0158  0.0264
 9119SOL     H153556   6.779   4.516   0.876 -1.8615  0.7595 -2.3870
 9119SOL     H253557   6.870   4.433   0.788  0.2229 -0.1775  0.5615
 9120SOL    OH253558   4.032   6.843   6.983 -0.3861 -0.0277 -0.6045
 9120SOL     H153559   3.992   6.892   6.911  0.0165  3.4448  1.3797
 9120SOL     H253560   3.962   6.835   7.049  0.2835  0.1843  0.1455
 9121SOL    OH253561   2.371   6.388   7.980 -0.2906  0.1411  0.2365
 9121SOL     H153562   2.363   6.365   7.887 -1.0319  1.9909 -0.1769
 9121SOL     H253563   2.397   6.306   8.023  2.0862 -0.2575 -1.8748
 9122SOL    OH253564   6.178   2.506   7.312  0.0106 -0.1424 -0.0720
 9122SOL     H153565   6.104   2.506   7.372 -1.1020 -1.7085 -1.3877
 9122SOL     H253566   6.140   2.485   7.227  1.8626 -0.2315 -0.9115
 9123SOL    OH253567   2.950   7.144   6.753  0.1291 -0.9038 -0.1365
 9123SOL     H153568   2.980   7.158   6.663 -0.4133  0.1917 -0.1449
 9123SOL     H253569   2.985   7.218   6.802 -3.5736  1.1198 -0.3762
 9124SOL    OH253570   4.606   0.884   1.625  0.2030  0.5211 -0.3941
 9124SOL     H153571   4.587   0.794   1.601 -0.4683 -0.3160  3.0566
 9124SOL     H253572   4.689   0.904   1.581 -0.8209 -0.9182 -3.1020
 9125SOL    OH253573   6.234   3.244   6.736  0.7062 -0.6967 -0.4393
 9125SOL     H153574   6.291   3.291   6.796  1.2717  0.2351 -1.6821
 9125SOL     H253575   6.256   3.152   6.749  3.3731 -0.2942 -1.7380
 9126SOL    OH253576   4.572   7.084   1.380  0.2510  0.5910  0.4142
 9126SOL     H153577   4.642   7.063   1.318 -0.5779  0.5719 -0.5363
 9126SOL     H253578   4.542   7.171   1.354  1.2503  1.4600  2.0778
 9127SOL    OH253579   5.484   7.694   1.845  0.0565  0.8555  0.6240
 9127SOL     H153580   5.440   7.618   1.807  1.4383  0.5242 -0.3303
 9127SOL     H253581   5.439   7.769   1.806 -1.0232  0.5455  1.2379
 9128SOL    OH253582   5.221   1.395   0.561  0.3435  0.3700 -0.3774
 9128SOL     H153583   5.152   1.385   0.496  0.5138  1.0625 -0.6734
 9128SOL     H253584   5.279   1.320   0.546  0.2098  0.3513 -0.8193
 9129SOL    OH253585   2.441   3.561   7.636  0.6598 -0.2078  0.4069
 9129SOL     H153586   2.477   3.477   7.666  2.6006  0.4488 -0.0201
 9129SOL     H253587   2.347   3.546   7.631  0.7598 -1.7273  2.4029
 9130SOL    OH253588   6.447   2.078   0.876  0.4298  0.0839  0.2603
 9130SOL     H153589   6.429   2.142   0.807  0.0655  0.0998  0.3694
 9130SOL     H253590   6.363   2.034   0.890  0.5226  0.0287  0.6420
 9131SOL    OH253591   4.327   1.154   0.044 -0.1530  0.1180 -0.1295
 9131SOL     H153592   4.346   1.212  -0.029  0.8623  0.0229  0.0513
 9131SOL     H253593   4.311   1.069   0.004  0.5178  0.0399 -0.2395
 9132SOL    OH253594   7.575   3.273   6.799 -0.2217  0.3062 -0.2145
 9132SOL     H153595   7.621   3.215   6.860 -0.4295  0.4477  0.0757
 9132SOL     H253596   7.541   3.214   6.732  0.1951  0.1755 -0.3129
 9133SOL    OH253597   3.510   1.379   6.543  0.2729  0.5203 -0.0129
 9133SOL     H153598   3.509   1.391   6.448 -0.0929 -0.1390 -0.0936
 9133SOL     H253599   3.554   1.457   6.576 -0.4098  1.1952 -0.6619
 9134SOL    OH253600   2.421   2.797   6.803 -0.3859  0.4635  0.3248
 9134SOL     H153601   2.498   2.797   6.860 -0.8737 -0.8719  0.9967
 9134SOL     H253602   2.428   2.716   6.752 -2.2556 -0.5931  1.6693
 9135SOL    OH253603   5.773   4.989   7.853  0.2411  0.3074  0.6511
 9135SOL     H153604   5.764   4.994   7.948 -1.8704  0.1216  0.4781
 9135SOL     H253605   5.795   4.897   7.836 -1.1582 -0.0747  0.8407
 9136SOL    OH253606   7.464   4.245   7.519  0.7731 -0.0523  0.4799
 9136SOL     H153607   7.389   4.234   7.459  0.6958 -0.2992  0.6197
 9136SOL     H253608   7.424   4.272   7.601  0.8769  0.2599  0.4258
 9137SOL    OH253609   2.427   2.302   6.399 -0.2013  0.8202 -0.0525
 9137SOL     H153610   2.484   2.337   6.468  1.6971  0.6393 -1.4827
 9137SOL     H253611   2.421   2.209   6.417 -1.8497  1.1708  1.3474
 9138SOL    OH253612   3.885   1.443   1.329  0.4371  0.3934 -0.1903
 9138SOL     H153613   3.821   1.485   1.271  0.2126 -1.0049 -0.9776
 9138SOL     H253614   3.962   1.430   1.274  0.0783 -1.3157 -0.2894
 9139SOL    OH253615   5.097   2.427   1.707 -0.4994 -0.0940 -0.4953
 9139SOL     H153616   5.116   2.340   1.673  1.8959  0.2132 -0.0044
 9139SOL     H253617   5.076   2.479   1.630  0.3765 -0.5312 -1.0317
 9140SOL    OH253618   5.997   2.263   1.615 -0.1105  0.2037 -0.3380
 9140SOL     H153619   6.017   2.172   1.637  1.3800  0.9344  1.4857
 9140SOL     H253620   6.073   2.312   1.648 -2.4361  2.4990  1.7870
 9141SOL    OH253621   0.916   4.492   1.786 -0.4768  0.0877  0.1201
 9141SOL     H153622   0.980   4.537   1.841  0.7802 -1.7763  0.2246
 9141SOL     H253623   0.835   4.540   1.799  0.1373  0.5062  2.5546
 9142SOL    OH253624   5.855   2.672   1.181  0.0022 -0.5901  0.2804
 9142SOL     H153625   5.817   2.662   1.093  2.6810  0.0620 -1.0098
 9142SOL     H253626   5.868   2.583   1.212  0.5845 -0.8449 -0.6909
 9143SOL    OH253627   5.520   7.232   0.153 -0.2765 -0.3825  0.3981
 9143SOL     H153628   5.535   7.226   0.248  0.3578 -1.5438  0.2359
 9143SOL     H253629   5.582   7.169   0.116 -0.2924  0.3115 -0.8139
 9144SOL    OH253630   0.048   2.214   6.933 -0.3860  0.2346 -0.6472
 9144SOL     H153631  -0.014   2.174   6.873 -0.5255 -0.6508  0.0633
 9144SOL     H253632  -0.005   2.242   7.008  0.0779 -0.6942  0.0456
 9145SOL    OH253633   5.538   2.636   1.511 -0.1326  0.2538  0.3734
 9145SOL     H153634   5.609   2.579   1.539  0.3917  1.1216  0.8422
 9145SOL     H253635   5.524   2.614   1.419 -0.6918 -1.3934  0.8425
 9146SOL    OH253636   1.000   1.973   1.190  0.2516 -0.0888 -0.4911
 9146SOL     H153637   0.967   2.037   1.253  2.2565 -0.8396  1.3846
 9146SOL     H253638   0.938   1.900   1.196  0.1541  0.0535  0.2789
 9147SOL    OH253639   1.507   3.251   1.610 -0.1853  0.4938  0.6937
 9147SOL     H153640   1.515   3.260   1.515  3.4667 -0.5688  0.8206
 9147SOL     H253641   1.421   3.212   1.624 -0.6585  0.4449 -2.1877
 9148SOL    OH253642   2.032   7.512   7.730 -0.0798  0.4000  0.2084
 9148SOL     H153643   2.073   7.430   7.755 -0.3665  0.4603  0.8662
 9148SOL     H253644   1.944   7.509   7.768 -0.6239  0.3645 -1.0045
 9149SOL    OH253645   2.417   2.427   0.945 -0.3513 -0.3599  0.4276
 9149SOL     H153646   2.416   2.516   0.981  1.3498 -0.3051  0.3900
 9149SOL     H253647   2.348   2.427   0.879 -0.1780  1.0341  0.2325
 9150SOL    OH253648   0.799   0.276   1.473  0.3810  0.3742 -0.4448
 9150SOL     H153649   0.839   0.363   1.461 -1.0346  1.2382  0.9763
 9150SOL     H253650   0.766   0.277   1.562 -1.1191 -1.0330 -0.9692
 9151SOL    OH253651   1.765   4.715   6.890  0.9882  0.0194  0.8275
 9151SOL     H153652   1.803   4.669   6.965  1.8172  0.4098  0.6473
 9151SOL     H253653   1.752   4.805   6.921  0.2456 -0.0972  0.8735
 9152SOL    OH253654   2.180   4.506   0.256  0.4441 -0.1600  0.3103
 9152SOL     H153655   2.135   4.474   0.335 -0.9125  0.8253 -0.0397
 9152SOL     H253656   2.122   4.574   0.223  1.0325 -0.5443 -1.5276
 9153SOL    OH253657   5.536   6.387   7.309  0.2932  0.1909  0.1852
 9153SOL     H153658   5.564   6.298   7.285  0.3735  0.6713 -1.5231
 9153SOL     H253659   5.586   6.406   7.388 -0.1480 -1.4997  0.9064
 9154SOL    OH253660   1.880   0.932   0.372  0.7057  0.5485 -0.0898
 9154SOL     H153661   1.943   1.002   0.356  1.1759  0.3494  0.8324
 9154SOL     H253662   1.893   0.909   0.464  0.1255 -0.3235 -0.2199
 9155SOL    OH253663   5.509   6.543   1.567 -0.1881 -0.8047 -0.2569
 9155SOL     H153664   5.587   6.565   1.515 -0.1374  0.7912  0.4833
 9155SOL     H253665   5.535   6.463   1.614  0.2886 -1.4218 -1.5235
 9156SOL    OH253666   3.817   1.850   8.048 -0.3304  0.4016  0.4232
 9156SOL     H153667   3.735   1.816   8.013 -0.7335 -0.1460  1.8325
 9156SOL     H253668   3.827   1.806   8.133  0.3904  1.9741  1.1873
 9157SOL    OH253669   5.805   4.940   8.130 -0.3641 -0.1434  0.3421
 9157SOL     H153670   5.749   4.987   8.192  0.5039 -1.7345  2.4056
 9157SOL     H253671   5.862   4.886   8.186  1.4540 -0.5105 -1.7952
 9158SOL    OH253672   2.913   0.238   5.867  0.1112 -0.2597  0.4954
 9158SOL     H153673   2.944   0.214   5.779  0.7709 -1.5351  1.0717
 9158SOL     H253674   2.844   0.174   5.886  0.8525 -0.7925  1.4245
 9159SOL    OH253675   7.411   2.315   1.593  0.1335  0.4510  0.1316
 9159SOL     H153676   7.350   2.376   1.552 -0.3323  0.8681  1.4256
 9159SOL     H253677   7.364   2.281   1.669  1.2174  0.1766  0.6895
 9160SOL    OH253678   5.973   6.041   7.410  0.1723 -0.4512 -0.4653
 9160SOL     H153679   6.015   6.016   7.328 -1.3812  2.5565 -2.2532
 9160SOL     H253680   5.908   5.973   7.426  0.6628 -1.1841 -1.5544
 9161SOL    OH253681   7.081   4.762   2.233 -0.1480 -0.1283  0.2056
 9161SOL     H153682   7.097   4.667   2.238 -0.0380 -0.0316  1.7980
 9161SOL     H253683   7.165   4.798   2.205 -0.3097 -0.5262 -0.8411
 9162SOL    OH253684   3.059   1.275   1.589 -0.3704  0.4327 -0.1657
 9162SOL     H153685   3.093   1.206   1.646  0.4014  0.6338 -0.3755
 9162SOL     H253686   2.976   1.301   1.630 -0.7032 -0.6688 -0.1352
 9163SOL    OH253687   5.537   0.096   8.155 -0.8246 -0.2520 -0.6025
 9163SOL     H153688   5.544   0.078   8.061 -2.9144  0.3467 -0.9003
 9163SOL     H253689   5.505   0.186   8.160  1.4625  0.5304  0.7457
 9164SOL    OH253690   7.806   6.114   7.160 -0.6448  0.0183  0.3794
 9164SOL     H153691   7.897   6.141   7.158 -0.3237 -1.0069  1.0125
 9164SOL     H253692   7.783   6.112   7.253 -1.4120  0.6006  0.2093
 9165SOL    OH253693   7.805   4.235   6.958 -0.9530 -0.3513  0.1592
 9165SOL     H153694   7.716   4.202   6.954 -0.1248 -2.7462  0.4728
 9165SOL     H253695   7.845   4.204   6.876 -1.1741  3.1336 -1.3471
 9166SOL    OH253696   7.281   1.881   1.667  0.1811  0.1282  0.2143
 9166SOL     H153697   7.259   1.877   1.761  3.8656 -1.9150  1.0698
 9166SOL     H253698   7.213   1.937   1.629 -1.6713  0.6144  4.0153
 9167SOL    OH253699   7.159   3.816   6.146  0.4325  0.0703  0.5519
 9167SOL     H153700   7.069   3.813   6.115  1.2413  0.6922 -1.9783
 9167SOL     H253701   7.180   3.726   6.169 -0.2004 -0.4323 -0.7702
 9168SOL    OH253702   1.887   4.356   6.278  0.1873 -0.2547 -0.3909
 9168SOL     H153703   1.975   4.393   6.275 -0.7961  2.1643 -0.4248
 9168SOL     H253704   1.901   4.264   6.300  2.5793  0.6410  2.2266
 9169SOL    OH253705   6.972   3.538   1.902 -0.6666 -0.9765 -0.1711
 9169SOL     H153706   6.984   3.448   1.930  1.5362 -0.2655  1.2641
 9169SOL     H253707   6.935   3.582   1.978  1.4308  0.0426  0.3035
 9170SOL    OH253708   7.014   6.020   7.131  0.4065 -0.8768 -0.3566
 9170SOL     H153709   6.972   5.940   7.101 -0.6237 -1.0315  1.3679
 9170SOL     H253710   6.961   6.091   7.094 -1.4638 -1.0723  1.8331
 9171SOL    OH253711   6.108   6.948   6.583 -0.1634  0.0804  0.4899
 9171SOL     H153712   6.181   6.889   6.599  1.2457  2.1681  1.8575
 9171SOL     H253713   6.125   6.985   6.496 -0.7442 -1.0143 -0.1121
 9172SOL    OH253714   4.162   0.988   1.588 -0.2785 -0.0986 -0.0589
 9172SOL     H153715   4.207   1.059   1.633 -3.2259  0.4174  2.1926
 9172SOL     H253716   4.192   0.908   1.632 -1.4890  0.2444  1.4291
 9173SOL    OH253717   6.266   0.637   1.822 -0.3856  0.3781 -0.1517
 9173SOL     H153718   6.185   0.588   1.832  0.3820 -1.1027 -0.9385
 9173SOL     H253719   6.278   0.644   1.727  1.2696 -0.9330 -0.0639
 9174SOL    OH253720   4.409   1.924   8.240  0.3410  0.3204 -0.6787
 9174SOL     H153721   4.344   1.993   8.229  0.8989  0.7919 -1.0696
 9174SOL     H253722   4.447   1.940   8.326 -0.2842 -0.1525 -0.3100
 9175SOL    OH253723   7.702   1.672   6.118  0.3539  0.1198 -0.1150
 9175SOL     H153724   7.779   1.711   6.077  0.6053  0.6519  0.8500
 9175SOL     H253725   7.717   1.578   6.112  0.8130  0.2089 -0.4286
 9176SOL    OH253726   1.323   5.369   2.036  0.5882 -0.3846  0.3824
 9176SOL     H153727   1.379   5.373   2.113  2.1840  0.1434 -0.7673
 9176SOL     H253728   1.357   5.437   1.978 -2.1272  0.8952  0.2037
 9177SOL    OH253729   2.609   5.112   7.637  0.9956 -0.1328  0.3836
 9177SOL     H153730   2.549   5.039   7.650  0.5913  0.2022  0.4093
 9177SOL     H253731   2.626   5.112   7.543  4.2796 -2.8377  0.8550
 9178SOL    OH253732   1.955   7.559   1.060  0.2595 -0.0548  0.1935
 9178SOL     H153733   1.976   7.566   1.153  0.0130  0.4776  0.2102
 9178SOL     H253734   1.948   7.649   1.030  0.9618 -0.2140 -0.4872
 9179SOL    OH253735   0.303   1.205   2.070  0.1667 -0.0372 -0.0916
 9179SOL     H153736   0.244   1.130   2.071 -0.1753  0.2486  0.7568
 9179SOL     H253737   0.390   1.167   2.082  0.2565 -0.5364 -2.1105
 9180SOL    OH253738   4.189   2.716   1.520 -0.4779  0.3317  0.1197
 9180SOL     H153739   4.259   2.780   1.510  2.0985 -2.5968 -1.3917
 9180SOL     H253740   4.153   2.706   1.432 -0.7334 -0.4027  0.2988
 9181SOL    OH253741   5.987   3.405   7.325  0.4077  0.2654 -0.5301
 9181SOL     H153742   5.930   3.477   7.354  1.8100  0.5358  1.6898
 9181SOL     H253743   5.938   3.326   7.346  0.4173  0.5166  0.4903
 9182SOL    OH253744   4.311   4.235   1.188 -0.2413 -0.0804 -0.0790
 9182SOL     H153745   4.302   4.252   1.094 -0.5455 -1.6209 -0.3450
 9182SOL     H253746   4.403   4.210   1.198 -0.5481 -1.2961 -0.2110
 9183SOL    OH253747   3.874   2.648   6.877 -0.1752 -0.4743  0.1684
 9183SOL     H153748   3.792   2.691   6.852  0.4454 -0.3747 -1.7751
 9183SOL     H253749   3.870   2.563   6.834  0.0335 -1.1262  1.4104
 9184SOL    OH253750   2.940   6.679   6.234 -0.0130 -0.1013  0.2630
 9184SOL     H153751   2.954   6.610   6.300 -1.3454 -0.8732 -0.2426
 9184SOL     H253752   3.016   6.735   6.243 -0.0741 -0.2819  2.3718
 9185SOL    OH253753   2.594   1.541   1.614 -0.3622  0.2931 -0.1589
 9185SOL     H153754   2.568   1.486   1.540  0.9849  0.4890 -0.7894
 9185SOL     H253755   2.690   1.544   1.609 -0.3407  1.3990  0.8073
 9186SOL    OH253756   1.392   3.900   2.031 -0.1160  0.1730 -0.5657
 9186SOL     H153757   1.449   3.974   2.052 -0.5687  0.5934 -0.8159
 9186SOL     H253758   1.401   3.842   2.107  0.0979  0.5675 -0.2816
 9187SOL    OH253759   7.602   6.353   7.788 -0.3537  0.1880  0.5301
 9187SOL     H153760   7.651   6.338   7.707 -0.8851 -0.7634  0.3679
 9187SOL     H253761   7.579   6.446   7.786 -0.0139  0.2566 -0.2187
 9188SOL    OH253762   1.472   0.289   0.506 -0.0054 -0.6200 -0.5188
 9188SOL     H153763   1.446   0.376   0.478  0.5459 -1.4259 -3.8603
 9188SOL     H253764   1.526   0.303   0.583  0.0666  2.0042 -1.0154
 9189SOL    OH253765   1.013   4.195   1.807 -0.0581 -0.9635 -0.4789
 9189SOL     H153766   0.938   4.253   1.792 -0.2581 -0.9593  0.5162
 9189SOL     H253767   0.974   4.112   1.835  0.3056 -0.9855 -0.0367
 9190SOL    OH253768   1.601   0.531   6.666 -0.3022 -0.8008 -0.4984
 9190SOL     H153769   1.660   0.526   6.591 -2.1899 -1.0963 -1.9977
 9190SOL     H253770   1.556   0.447   6.665 -1.3496 -0.2456  0.1267
 9191SOL    OH253771   1.081   0.521   6.934 -0.1813  0.0204 -0.0080
 9191SOL     H153772   1.024   0.483   7.001  0.2144  0.2098  0.4399
 9191SOL     H253773   1.081   0.456   6.863 -0.0788 -0.4869  0.4490
 9192SOL    OH253774   3.032   0.688   7.261  0.3217  0.0188 -0.5528
 9192SOL     H153775   2.968   0.638   7.313  0.3979  1.2574  0.7558
 9192SOL     H253776   3.117   0.660   7.294  0.4115 -0.1459 -0.9171
 9193SOL    OH253777   3.158   4.088   0.613 -0.1382 -0.4088 -0.5667
 9193SOL     H153778   3.138   4.085   0.519  1.9600 -0.1032 -1.0520
 9193SOL     H253779   3.176   3.997   0.636 -0.3815 -0.4443 -0.5099
 9194SOL    OH253780   0.826   4.419   7.236  0.3437  0.1104  0.6863
 9194SOL     H153781   0.905   4.474   7.232  0.0912  0.3783 -0.9259
 9194SOL     H253782   0.754   4.481   7.227  0.0462 -0.4598 -0.9114
 9195SOL    OH253783   5.796   4.502   7.087  0.2353  0.4344  0.1531
 9195SOL     H153784   5.796   4.565   7.159  1.5339 -0.9232  1.3896
 9195SOL     H253785   5.887   4.472   7.082 -0.2699 -0.9844 -0.7012
 9196SOL    OH253786   4.871   0.422   1.419 -0.2169  0.3943 -0.7269
 9196SOL     H153787   4.882   0.333   1.387 -0.1492 -0.7529  2.2686
 9196SOL     H253788   4.961   0.454   1.432 -0.2394 -0.0365  0.5615
 9197SOL    OH253789   7.831   6.077   6.437 -0.6178 -0.0422 -0.2949
 9197SOL     H153790   7.804   6.010   6.374 -1.6191  0.0168  0.0612
 9197SOL     H253791   7.864   6.026   6.511 -0.9623 -0.1451 -0.2080
 9198SOL    OH253792   6.501   0.407   1.178 -0.5611 -0.4587  0.3710
 9198SOL     H153793   6.462   0.485   1.217  0.2481  1.6230 -2.7977
 9198SOL     H253794   6.595   0.416   1.194 -0.6836 -2.0346  2.0907
 9199SOL    OH253795   1.038   4.661   2.529 -0.1679  0.3499  0.2300
 9199SOL     H153796   1.061   4.722   2.460 -0.4531  0.9305  0.6390
 9199SOL     H253797   0.942   4.659   2.527 -0.1418 -0.6337 -0.2535
 9200SOL    OH253798   3.873   2.639   2.542  0.1121  0.3310 -0.0588
 9200SOL     H153799   3.948   2.600   2.496 -1.7296 -0.7962 -2.2211
 9200SOL     H253800   3.881   2.607   2.632  2.0125 -0.0648 -0.3411
   7.96200   7.96200   8.27881
